
Host: cm045.hpc.nyu.edu

Timers On : Thu Nov  7 14:57:03 2024
Timers Off: Thu Nov  7 14:57:04 2024

Wall Time:        0.35 seconds

                                                       Time (seconds)
Module                                       User      System        Wall        Calls

--------------------------------------------------------------------------------------

**************************************************************************************
