ITEM: TIMESTEP
100000
ITEM: NUMBER OF ATOMS
400
ITEM: BOX BOUNDS pp pp pp
0.0000000000000000e+00 2.0519567041703080e+01
0.0000000000000000e+00 2.0519567041703080e+01
-5.1298917604257699e-01 5.1298917604257699e-01
ITEM: ATOMS id type xs ys zs
328 1 0.353721 0.0149972 0.5
387 1 0.355436 0.494011 0.5
301 1 0.270924 0.0590043 0.5
362 1 0.0340007 0.13096 0.5
165 1 0.119037 0.110261 0.5
278 1 0.418119 0.422238 0.5
192 1 0.474848 0.423693 0.5
189 1 0.154467 0.0761286 0.5
45 1 0.108749 0.0635352 0.5
310 1 0.228384 0.0258485 0.5
14 1 0.0366508 0.204252 0.5
207 1 0.471666 0.341839 0.5
258 1 0.191381 0.496629 0.5
399 1 0.118518 0.0142355 0.5
106 1 0.245852 0.10572 0.5
58 1 0.311748 0.0380473 0.5
131 1 0.368481 0.0600736 0.5
396 1 0.465808 0.0801572 0.5
123 1 0.470132 0.151058 0.5
99 1 0.0908969 0.481206 0.5
359 1 0.20914 0.0720108 0.5
130 1 0.31696 0.0847671 0.5
197 1 0.389428 0.102876 0.5
198 1 0.426554 0.0562958 0.5
361 1 0.390111 0.151527 0.5
266 1 0.433746 0.118472 0.5
327 1 0.169522 0.120873 0.5
96 1 0.210131 0.139949 0.5
3 1 0.294302 0.128264 0.5
100 1 0.358869 0.195653 0.5
25 1 0.32231 0.224971 0.5
190 1 0.41291 0.195051 0.5
113 1 0.45872 0.194618 0.5
335 1 0.308747 0.48746 0.5
31 1 0.392208 0.361239 0.5
115 1 0.125494 0.155837 0.5
56 1 0.257416 0.16417 0.5
111 1 0.344888 0.131388 0.5
47 1 0.386073 0.23477 0.5
200 1 0.484845 0.244784 0.5
180 1 0.0775643 0.167293 0.5
204 1 0.217383 0.188409 0.5
357 1 0.30618 0.17543 0.5
379 1 0.434167 0.237832 0.5
307 1 0.015446 0.347708 0.5
317 1 0.442525 0.461812 0.5
97 1 0.130148 0.219356 0.5
373 1 0.169407 0.186517 0.5
332 1 0.274359 0.216198 0.5
125 1 0.304138 0.268343 0.5
132 1 0.403641 0.278945 0.5
205 1 0.46188 0.285427 0.5
210 1 0.0140179 0.258276 0.5
212 1 0.0842471 0.217944 0.5
390 1 0.132919 0.26681 0.5
380 1 0.159826 0.311989 0.5
151 1 0.190202 0.275672 0.5
334 1 0.352184 0.268419 0.5
143 1 0.370693 0.318359 0.5
213 1 0.420859 0.321994 0.5
239 1 0.0637333 0.0480676 0.5
211 1 0.0626922 0.260594 0.5
26 1 0.223813 0.237106 0.5
315 1 0.46283 0.0178386 0.5
252 1 0.115764 0.433811 0.5
222 1 0.0533513 0.443304 0.5
71 1 0.0424857 0.306662 0.5
77 1 0.102587 0.300875 0.5
221 1 0.178771 0.355498 0.5
203 1 0.219844 0.317338 0.5
109 1 0.175547 0.231061 0.5
95 1 0.262076 0.293999 0.5
60 1 0.317747 0.319135 0.5
138 1 0.335722 0.363439 0.5
226 1 0.044343 0.384218 0.5
397 1 0.195509 0.404404 0.5
393 1 0.226426 0.366123 0.5
15 1 0.0698359 0.0985662 0.5
370 1 0.488805 0.475393 0.5
199 1 0.0707798 0.341775 0.5
384 1 0.276034 0.35026 0.5
148 1 0.247879 0.407915 0.5
187 1 0.294441 0.40489 0.5
136 1 0.441597 0.379586 0.5
19 1 0.0956403 0.390509 0.5
398 1 0.116687 0.346675 0.5
112 1 0.143253 0.388661 0.5
40 1 0.177007 0.447367 0.5
242 1 0.279198 0.453436 0.5
248 1 0.227549 0.465809 0.5
350 1 0.333072 0.438823 0.5
91 1 0.372018 0.407455 0.5
311 1 0.380452 0.455777 0.5
366 1 0.169454 0.0292955 0.5
220 1 0.00662963 0.483091 0.5
235 1 0.13773 0.47735 0.5
104 1 0.0229461 0.0739382 0.5
21 1 0.402045 0.0125894 0.5
355 1 0.271469 0.00865761 0.5
54 1 0.00409773 0.422456 0.5
319 1 0.0447216 0.00213702 0.5
253 1 0.00771185 0.0299397 0.5
284 1 0.33161 0.973645 0.5
103 1 0.40313 0.499997 0.5
251 1 0.179121 0.543022 0.5
245 1 0.294895 0.623898 0.5
201 1 0.471191 0.709021 0.5
391 1 0.0545931 0.580973 0.5
38 1 0.27631 0.959286 0.5
302 1 0.0845772 0.54063 0.5
101 1 0.105574 0.594204 0.5
303 1 0.231854 0.556892 0.5
313 1 0.282634 0.57527 0.5
304 1 0.317041 0.539389 0.5
146 1 0.224075 0.931472 0.5
352 1 0.0607076 0.630307 0.5
117 1 0.127979 0.524576 0.5
394 1 0.198226 0.600022 0.5
83 1 0.259218 0.653004 0.5
269 1 0.412068 0.564526 0.5
341 1 0.243605 0.511454 0.5
171 1 0.477822 0.561609 0.5
382 1 0.0670398 0.683421 0.5
32 1 0.105767 0.649842 0.5
22 1 0.16093 0.635975 0.5
108 1 0.33405 0.591795 0.5
325 1 0.363514 0.546833 0.5
321 1 0.484917 0.624986 0.5
142 1 0.433488 0.974879 0.5
262 1 0.0485987 0.725687 0.5
274 1 0.134542 0.688666 0.5
365 1 0.150218 0.582742 0.5
294 1 0.326057 0.713617 0.5
30 1 0.221535 0.713437 0.5
114 1 0.487179 0.89437 0.5
275 1 0.0985656 0.730509 0.5
314 1 0.181683 0.689514 0.5
194 1 0.211108 0.646134 0.5
285 1 0.317602 0.664315 0.5
9 1 0.358231 0.638308 0.5
35 1 0.383716 0.600387 0.5
223 1 0.0475473 0.507219 0.5
324 1 0.444686 0.601448 0.5
182 1 0.0155908 0.67972 0.5
345 1 0.149445 0.743704 0.5
140 1 0.247488 0.767221 0.5
33 1 0.249363 0.606405 0.5
225 1 0.408688 0.645171 0.5
255 1 0.365883 0.686081 0.5
172 1 0.112671 0.779677 0.5
179 1 0.382962 0.729155 0.5
244 1 0.432574 0.736105 0.5
177 1 0.125683 0.916428 0.5
273 1 0.0052418 0.760501 0.5
16 1 0.0740701 0.817408 0.5
46 1 0.199045 0.757989 0.5
28 1 0.270701 0.701565 0.5
107 1 0.313032 0.758491 0.5
118 1 0.375976 0.832569 0.5
196 1 0.418587 0.691155 0.5
69 1 0.428425 0.823787 0.5
240 1 0.459494 0.66426 0.5
94 1 0.0321126 0.798795 0.5
330 1 0.151597 0.876781 0.5
51 1 0.0676186 0.769877 0.5
67 1 0.163105 0.797372 0.5
395 1 0.28114 0.800354 0.5
70 1 0.354301 0.792191 0.5
39 1 0.399603 0.780505 0.5
277 1 0.440293 0.869937 0.5
5 1 0.100461 0.877928 0.5
183 1 0.22076 0.80574 0.5
76 1 0.257695 0.843928 0.5
291 1 0.347054 0.871697 0.5
249 1 0.392862 0.876109 0.5
286 1 0.0556815 0.860665 0.5
55 1 0.0771035 0.919056 0.5
80 1 0.128574 0.831519 0.5
89 1 0.299589 0.87055 0.5
267 1 0.32171 0.826707 0.5
52 1 0.448807 0.923191 0.5
127 1 0.480248 0.960059 0.5
124 1 0.17593 0.930853 0.5
168 1 0.0333594 0.903491 0.5
263 1 0.215625 0.885828 0.5
88 1 0.309929 0.921528 0.5
356 1 0.40424 0.930731 0.5
281 1 0.0389072 0.954165 0.5
326 1 0.00648408 0.841118 0.5
178 1 0.0845997 0.972664 0.5
333 1 0.45249 0.518353 0.5
34 1 0.191469 0.848319 0.5
309 1 0.26183 0.898238 0.5
158 1 0.355569 0.929898 0.5
81 1 0.379657 0.971689 0.5
53 1 0.1315 0.963155 0.5
157 1 0.448631 0.781843 0.5
232 1 0.0144045 0.626496 0.5
400 1 0.478009 0.842066 0.5
188 1 0.000746718 0.981001 0.5
268 1 0.491096 0.760073 0.5
133 1 0.177552 0.981544 0.5
93 1 0.23503 0.977819 0.5
173 1 0.00794885 0.544516 0.5
236 1 0.685023 0.0607205 0.5
300 1 0.594901 0.341951 0.5
12 1 0.537504 0.0970877 0.5
8 1 0.870708 0.0758952 0.5
219 1 0.666522 0.103262 0.5
73 1 0.629651 0.132279 0.5
79 1 0.790104 0.0916899 0.5
154 1 0.511511 0.287553 0.5
166 1 0.595775 0.0328978 0.5
105 1 0.966259 0.260863 0.5
331 1 0.754416 0.017638 0.5
231 1 0.572083 0.144047 0.5
174 1 0.710604 0.12299 0.5
153 1 0.731291 0.0803622 0.5
337 1 0.807846 0.148807 0.5
265 1 0.836252 0.109775 0.5
202 1 0.910864 0.00649834 0.5
290 1 0.960887 0.0151549 0.5
241 1 0.705543 0.44792 0.5
150 1 0.672733 0.155912 0.5
343 1 0.759821 0.12979 0.5
351 1 0.767624 0.180215 0.5
169 1 0.854965 0.157936 0.5
42 1 0.918356 0.0560087 0.5
247 1 0.973583 0.0654352 0.5
66 1 0.524881 0.147642 0.5
61 1 0.57496 0.193268 0.5
322 1 0.727922 0.217946 0.5
295 1 0.833863 0.198066 0.5
260 1 0.995846 0.303222 0.5
360 1 0.599052 0.289525 0.5
305 1 0.591044 0.0860895 0.5
259 1 0.626766 0.190698 0.5
11 1 0.722244 0.171284 0.5
368 1 0.673907 0.20777 0.5
369 1 0.735687 0.265337 0.5
175 1 0.892438 0.126628 0.5
24 1 0.938804 0.101261 0.5
297 1 0.936591 0.149806 0.5
120 1 0.60816 0.238622 0.5
206 1 0.643395 0.269826 0.5
217 1 0.850779 0.245956 0.5
372 1 0.943668 0.207736 0.5
49 1 0.985342 0.123013 0.5
59 1 0.596215 0.47112 0.5
72 1 0.73453 0.318363 0.5
144 1 0.689496 0.34839 0.5
102 1 0.89567 0.187496 0.5
308 1 0.994919 0.170149 0.5
353 1 0.640258 0.318413 0.5
261 1 0.686024 0.299345 0.5
264 1 0.622521 0.414928 0.5
64 1 0.646496 0.37187 0.5
167 1 0.687279 0.253808 0.5
160 1 0.795158 0.229848 0.5
43 1 0.890574 0.297166 0.5
227 1 0.988907 0.216625 0.5
6 1 0.543167 0.333496 0.5
63 1 0.560216 0.384687 0.5
145 1 0.738305 0.410451 0.5
270 1 0.779401 0.288725 0.5
163 1 0.901508 0.232825 0.5
238 1 0.547197 0.0507582 0.5
371 1 0.666401 0.499546 0.5
164 1 0.680066 0.407946 0.5
191 1 0.577565 0.429069 0.5
392 1 0.654045 0.451391 0.5
162 1 0.751947 0.363496 0.5
234 1 0.83598 0.293646 0.5
155 1 0.794483 0.341466 0.5
230 1 0.862664 0.336871 0.5
250 1 0.691189 0.0113784 0.5
141 1 0.523151 0.427658 0.5
323 1 0.520186 0.195644 0.5
243 1 0.792333 0.42406 0.5
119 1 0.815777 0.381437 0.5
224 1 0.936808 0.321407 0.5
186 1 0.962051 0.360589 0.5
27 1 0.643898 0.0135927 0.5
283 1 0.758106 0.460661 0.5
87 1 0.840692 0.438503 0.5
287 1 0.943066 0.412505 0.5
74 1 0.504597 0.374964 0.5
347 1 0.542736 0.480835 0.5
218 1 0.810683 0.47224 0.5
383 1 0.864135 0.39381 0.5
2 1 0.911834 0.366883 0.5
86 1 0.919158 0.47439 0.5
215 1 0.964975 0.456621 0.5
376 1 0.865928 0.0287711 0.5
254 1 0.722385 0.491888 0.5
110 1 0.555539 0.241806 0.5
388 1 0.873614 0.475987 0.5
147 1 0.894178 0.43314 0.5
23 1 0.634779 0.0601368 0.5
354 1 0.818734 0.0542892 0.5
229 1 0.50029 0.0471006 0.5
358 1 0.558526 0.523142 0.5
346 1 0.935913 0.70808 0.5
363 1 0.914166 0.663386 0.5
316 1 0.896278 0.754971 0.5
36 1 0.675748 0.962358 0.5
137 1 0.955274 0.965887 0.5
78 1 0.974882 0.584323 0.5
176 1 0.510691 0.519097 0.5
378 1 0.650024 0.548334 0.5
139 1 0.746165 0.547898 0.5
282 1 0.824367 0.565912 0.5
17 1 0.842457 0.608352 0.5
348 1 0.916826 0.566153 0.5
276 1 0.97462 0.797125 0.5
161 1 0.58809 0.561278 0.5
57 1 0.625858 0.588762 0.5
214 1 0.766673 0.593326 0.5
134 1 0.870777 0.55828 0.5
122 1 0.950063 0.628035 0.5
342 1 0.535655 0.56683 0.5
62 1 0.531341 0.613857 0.5
306 1 0.684921 0.584109 0.5
386 1 0.725591 0.624705 0.5
209 1 0.697665 0.539404 0.5
279 1 0.764724 0.651266 0.5
193 1 0.897075 0.613532 0.5
121 1 0.840173 0.51133 0.5
288 1 0.514301 0.662703 0.5
44 1 0.587915 0.62707 0.5
75 1 0.638205 0.633434 0.5
216 1 0.689032 0.651783 0.5
364 1 0.727717 0.688542 0.5
280 1 0.966611 0.671832 0.5
184 1 0.560869 0.670521 0.5
344 1 0.615404 0.675746 0.5
37 1 0.778194 0.706234 0.5
129 1 0.811225 0.658758 0.5
185 1 0.865893 0.664987 0.5
292 1 0.877881 0.921426 0.5
349 1 0.818654 0.989695 0.5
85 1 0.549469 0.756059 0.5
90 1 0.583572 0.716724 0.5
126 1 0.663425 0.689959 0.5
50 1 0.739949 0.737098 0.5
312 1 0.788066 0.75216 0.5
92 1 0.825321 0.703627 0.5
159 1 0.84516 0.746076 0.5
299 1 0.881243 0.70888 0.5
377 1 0.507067 0.806711 0.5
18 1 0.648801 0.746392 0.5
7 1 0.69324 0.725598 0.5
135 1 0.688265 0.775924 0.5
195 1 0.798612 0.871103 0.5
246 1 0.808903 0.796045 0.5
389 1 0.893326 0.518721 0.5
289 1 0.60466 0.762498 0.5
293 1 0.638306 0.797129 0.5
152 1 0.676311 0.821631 0.5
367 1 0.86605 0.789409 0.5
29 1 0.91964 0.805501 0.5
128 1 0.985607 0.886701 0.5
340 1 0.518911 0.720863 0.5
320 1 0.570482 0.862571 0.5
208 1 0.557799 0.800621 0.5
4 1 0.601736 0.826897 0.5
375 1 0.735894 0.785366 0.5
296 1 0.82916 0.932662 0.5
233 1 0.832717 0.837918 0.5
98 1 0.942893 0.858796 0.5
13 1 0.547572 0.912908 0.5
338 1 0.644197 0.857444 0.5
272 1 0.635141 0.930584 0.5
228 1 0.722592 0.830607 0.5
336 1 0.770417 0.826753 0.5
1 1 0.850499 0.879895 0.5
116 1 0.879617 0.836484 0.5
181 1 0.984303 0.717582 0.5
339 1 0.912489 0.955939 0.5
65 1 0.955503 0.52898 0.5
329 1 0.683096 0.891235 0.5
48 1 0.728781 0.875702 0.5
41 1 0.784833 0.916509 0.5
256 1 0.89723 0.879167 0.5
20 1 0.50935 0.999266 0.5
156 1 0.608162 0.517517 0.5
381 1 0.609192 0.891589 0.5
170 1 0.728981 0.924417 0.5
237 1 0.720031 0.976219 0.5
271 1 0.526447 0.954365 0.5
10 1 0.58547 0.94175 0.5
68 1 0.611601 0.981948 0.5
257 1 0.765689 0.957297 0.5
385 1 0.871364 0.977879 0.5
318 1 0.94581 0.914834 0.5
84 1 0.525987 0.850956 0.5
374 1 0.993726 0.934069 0.5
149 1 0.950358 0.751366 0.5
82 1 0.776026 0.506108 0.5
298 1 0.557794 0.989506 0.5
