ITEM: TIMESTEP
100000
ITEM: NUMBER OF ATOMS
2048
ITEM: BOX BOUNDS pp pp pp
0.0000000000000000e+00 1.1950412657485773e+01
0.0000000000000000e+00 1.1950412657485773e+01
0.0000000000000000e+00 1.1950412657485773e+01
ITEM: ATOMS id type xs ys zs
399 1 0.445198 0.010128 0.434939
401 1 0.496879 0.0125383 0.367856
77 1 0.370918 0.244698 0.0130282
12 1 0.25542 0.0638079 0.0604397
16 1 0.384273 0.0525864 0.0543131
135 1 0.201504 0.00558729 0.184395
546 1 0.056044 0.183812 0.494096
93 1 0.873809 0.244615 0.00813512
1301 1 0.626537 0.492899 0.245937
397 1 0.374196 0.0119221 0.376533
1415 1 0.195191 0.49425 0.433466
47 1 0.435901 0.124399 0.0630285
126 1 0.929455 0.436402 0.0104438
582 1 0.179598 0.310186 0.496619
1299 1 0.56061 0.494953 0.30559
1437 1 0.868721 0.498138 0.368694
81 1 0.51042 0.259157 0.00711081
983 1 0.689576 0.311059 -0.000287207
1309 1 0.876019 0.48791 0.243996
34 1 0.0612084 0.190616 0.00499299
522 1 0.299911 0.0542509 0.496294
1427 1 0.553565 0.489097 0.445152
86 1 0.624511 0.377106 0.00830465
31 1 0.938274 0.0129049 0.0652054
1545 1 0.249158 0.495646 0.493711
545 1 0.999332 0.122499 0.485987
102 1 0.174858 0.435619 0.00515917
11 1 0.321311 0.00171984 0.0654459
618 1 0.314404 0.437484 0.50011
129 1 0.993023 0.00333588 0.123223
405 1 0.631592 0.00278548 0.380874
110 1 0.428847 0.497205 0.0666833
589 1 0.374722 0.245087 0.498544
42 1 0.306621 0.196777 0.0128701
267 1 0.312773 0.00859503 0.318745
3 1 0.0683976 0.0133889 0.060234
114 1 0.493164 0.491038 0.00845065
271 1 0.431923 0.00873138 0.318642
104 1 0.11611 0.438181 0.062041
9 1 0.254331 0.005744 0.00856356
1051 1 0.802331 0.497591 0.0691765
112 1 0.370218 0.431503 0.068282
261 1 0.132225 0.00858822 0.249583
550 1 0.184301 0.177237 0.496797
124 1 0.751936 0.436308 0.0624305
947 1 0.554096 0.184841 0.00417058
1305 1 0.745198 0.494564 0.25202
529 1 0.505941 0.0100407 0.490646
1281 1 0.998196 0.493887 0.252154
513 1 0.992319 0.00969877 0.491346
118 1 0.688723 0.431703 0.00971951
593 1 0.505671 0.256538 0.496419
46 1 0.446495 0.195876 0.00552742
1159 1 0.188145 0.498747 0.189133
24 1 0.636275 0.0498553 0.0626138
1 1 0.995287 0.0102348 0.0045759
1307 1 0.8131 0.500191 0.304426
4 1 1.00193 0.0673028 0.0652546
8 1 0.125577 0.0702016 0.0604624
49 1 0.511358 0.0677988 0.0513095
28 1 0.75565 0.0625159 0.065722
32 1 0.881308 0.0722642 0.069393
35 1 0.0608553 0.11765 0.0616763
39 1 0.191935 0.13206 0.0518056
43 1 0.314861 0.122609 0.0559416
50 1 0.567978 0.126389 0.0577223
57 1 0.677572 0.122634 0.0609994
59 1 0.812556 0.123193 0.0639751
63 1 0.940507 0.132563 0.0733094
36 1 -0.00108879 0.19426 0.0546302
40 1 0.119976 0.188675 0.0660265
44 1 0.249096 0.190995 0.0688118
48 1 0.372876 0.184043 0.0640827
174 1 0.441471 0.19225 0.125665
52 1 0.49626 0.183233 0.0629967
56 1 0.620444 0.185359 0.0593149
182 1 0.742464 0.192767 0.0770574
64 1 0.873252 0.184277 0.0816002
67 1 0.0586125 0.25067 0.072136
71 1 0.193533 0.257658 0.0675725
75 1 0.318073 0.248098 0.0704908
79 1 0.448543 0.259209 0.0648885
83 1 0.565804 0.253823 0.0619641
87 1 0.679551 0.256486 0.0684831
91 1 0.820109 0.248135 0.0751686
95 1 0.9419 0.257578 0.0612151
68 1 0.00605954 0.317573 0.0558757
72 1 0.127666 0.31517 0.0715164
76 1 0.244508 0.316606 0.0566625
80 1 0.382191 0.309222 0.0603716
84 1 0.511597 0.315469 0.0629529
88 1 0.62072 0.315904 0.0668947
92 1 0.759952 0.305575 0.0635117
96 1 0.868375 0.308762 0.0611034
99 1 0.0646215 0.369152 0.0558497
103 1 0.192038 0.382308 0.0665248
107 1 0.302087 0.385706 0.0705527
111 1 0.442773 0.361029 0.0448948
115 1 0.564663 0.380758 0.0656039
119 1 0.684499 0.367177 0.0616282
123 1 0.809777 0.368206 0.0620052
127 1 0.934721 0.360123 0.0680021
100 1 0.999162 0.422165 0.0620249
108 1 0.241606 0.447659 0.056912
116 1 0.498274 0.41936 0.0533672
120 1 0.628912 0.430107 0.0838774
128 1 0.869792 0.431029 0.0657687
423 1 0.181377 0.138509 0.427356
549 1 0.129729 0.121499 0.495457
1035 1 0.312196 0.49673 0.0688
130 1 0.0671473 0.0704563 0.126754
109 1 0.359022 0.375295 0.00936603
181 1 0.558211 0.0675475 0.122134
150 1 0.688141 0.0669195 0.126353
134 1 0.194724 0.0778063 0.115573
138 1 0.305771 0.0655396 0.133279
142 1 0.444081 0.0619422 0.115128
55 1 0.624102 0.123139 0.118836
154 1 0.8258 0.0568749 0.133967
158 1 0.938386 0.0702425 0.131409
161 1 0.0065313 0.139395 0.123314
165 1 0.13636 0.135276 0.126562
169 1 0.252403 0.133568 0.128129
173 1 0.386488 0.133911 0.126078
177 1 0.501634 0.125017 0.121106
185 1 0.749947 0.123717 0.134851
189 1 0.876527 0.123925 0.137819
162 1 0.0687945 0.186461 0.129156
166 1 0.192167 0.199947 0.136044
170 1 0.312715 0.191144 0.141138
178 1 0.559802 0.182355 0.119571
184 1 0.68836 0.179987 0.132731
186 1 0.806278 0.179581 0.128846
190 1 0.946266 0.197879 0.11728
193 1 7.6242e-05 0.261492 0.123759
197 1 0.12704 0.2447 0.129768
201 1 0.259021 0.252174 0.129678
205 1 0.383003 0.253485 0.133395
209 1 0.504973 0.244441 0.124711
213 1 0.62096 0.245376 0.128327
217 1 0.750363 0.238905 0.139952
221 1 0.88319 0.247529 0.129641
194 1 0.072933 0.311647 0.132694
198 1 0.177042 0.320269 0.138511
202 1 0.308872 0.315722 0.122987
206 1 0.428873 0.321716 0.120078
210 1 0.55851 0.309251 0.134508
214 1 0.683113 0.302248 0.13041
218 1 0.813175 0.309068 0.127978
222 1 0.936669 0.309796 0.137848
225 1 0.00640865 0.371048 0.1414
229 1 0.121326 0.382344 0.124915
233 1 0.2476 0.371624 0.130349
238 1 0.372569 0.378506 0.125296
241 1 0.501264 0.373554 0.118803
245 1 0.620586 0.36371 0.128225
249 1 0.748091 0.37207 0.112901
253 1 0.881475 0.368254 0.121972
226 1 0.0542635 0.43751 0.112942
230 1 0.178887 0.439199 0.126606
237 1 0.311568 0.440034 0.136781
1039 1 0.443184 0.438487 0.120064
242 1 0.565956 0.429568 0.134124
246 1 0.697718 0.438649 0.129222
250 1 0.809364 0.431275 0.120966
254 1 0.939115 0.437196 0.123353
101 1 0.12852 0.365334 0.00615525
1169 1 0.511491 0.486319 0.127034
537 1 0.764795 0.00143436 0.50002
153 1 0.759851 0.00410516 0.121095
567 1 0.758141 0.128571 0.495987
132 1 0.997357 0.0641665 0.180984
464 1 0.378111 0.314443 0.442027
144 1 0.382851 0.0752569 0.180923
553 1 0.2422 0.12209 0.490827
558 1 0.442647 0.187377 0.49815
1439 1 0.94204 0.491939 0.432023
136 1 0.11576 0.0603618 0.190453
140 1 0.256764 0.063192 0.197988
270 1 0.443044 0.13385 0.189766
148 1 0.48735 0.0661735 0.183151
152 1 0.625955 0.0586221 0.183796
156 1 0.749533 0.0583614 0.178632
160 1 0.880012 0.0633651 0.194155
163 1 0.061844 0.132188 0.189358
167 1 0.188474 0.129716 0.19859
171 1 0.320348 0.127609 0.186476
179 1 0.569821 0.124729 0.188658
183 1 0.678026 0.120375 0.18389
187 1 0.812737 0.113336 0.195633
191 1 0.941169 0.126627 0.198827
168 1 0.121219 0.191687 0.188165
172 1 0.251895 0.201428 0.202022
176 1 0.380423 0.189533 0.186212
175 1 0.510605 0.183297 0.18723
180 1 0.622601 0.183923 0.183962
188 1 0.7492 0.174992 0.195559
192 1 0.873795 0.185997 0.18682
164 1 0.0126855 0.194767 0.191102
195 1 0.0675377 0.254367 0.193933
199 1 0.195588 0.258434 0.195978
203 1 0.314049 0.260458 0.187796
207 1 0.448786 0.245172 0.198275
211 1 0.556706 0.251405 0.185816
215 1 0.684503 0.248072 0.194922
219 1 0.821305 0.246973 0.190006
223 1 0.946411 0.243127 0.184734
196 1 0.0061709 0.310051 0.196969
200 1 0.122723 0.315379 0.197628
204 1 0.257097 0.311316 0.188351
208 1 0.373421 0.317114 0.181221
212 1 0.485016 0.316812 0.176913
216 1 0.624065 0.303685 0.186505
220 1 0.751998 0.307878 0.178622
224 1 0.867138 0.311108 0.191386
227 1 0.0740623 0.378443 0.192889
231 1 0.199016 0.379291 0.19211
235 1 0.313403 0.378989 0.198793
239 1 0.433915 0.381489 0.18288
243 1 0.560974 0.364235 0.190385
247 1 0.680675 0.368701 0.183815
251 1 0.816413 0.375754 0.182798
255 1 0.944422 0.370102 0.189622
232 1 0.122013 0.445629 0.180427
236 1 0.254313 0.443015 0.189929
240 1 0.378781 0.450505 0.194123
244 1 0.508676 0.423807 0.185623
248 1 0.627343 0.431047 0.185156
252 1 0.758919 0.438115 0.183427
256 1 0.886124 0.433363 0.18133
228 1 0.00816661 0.429259 0.196843
58 1 0.806821 0.190888 0.00676248
508 1 0.74958 0.444494 0.44652
605 1 0.864364 0.261292 0.491226
1037 1 0.373777 0.493628 0.00297595
573 1 0.878958 0.127498 0.491724
491 1 0.311274 0.366909 0.446447
61 1 0.879829 0.130332 0.00426799
258 1 0.0612094 0.0692187 0.255671
452 1 0.991155 0.309121 0.436825
514 1 0.0675238 0.0669311 0.493145
131 1 0.061855 0.00191977 0.192473
286 1 0.945889 0.058941 0.25139
262 1 0.191432 0.0686612 0.254365
266 1 0.319337 0.0701037 0.25209
143 1 0.434757 0.0505828 0.252065
274 1 0.564522 0.060159 0.247476
278 1 0.688841 0.0581717 0.240693
282 1 0.818498 0.0597005 0.254836
289 1 0.00155656 0.136467 0.257796
293 1 0.122075 0.136681 0.253191
297 1 0.257987 0.128151 0.24653
301 1 0.379417 0.131251 0.249958
305 1 0.503126 0.122691 0.247263
309 1 0.626015 0.11872 0.250531
313 1 0.752392 0.115018 0.252414
317 1 0.871923 0.12475 0.243712
290 1 0.0638196 0.196236 0.254487
294 1 0.182056 0.187971 0.25285
298 1 0.317152 0.191677 0.249729
302 1 0.435694 0.193629 0.258774
306 1 0.559377 0.19404 0.256905
310 1 0.690413 0.184779 0.251778
314 1 0.813477 0.180834 0.247353
318 1 0.923435 0.189418 0.252166
321 1 0.00140096 0.2465 0.25475
325 1 0.131465 0.251494 0.247273
329 1 0.242815 0.256469 0.261918
333 1 0.375112 0.243308 0.241814
337 1 0.503274 0.263296 0.249893
341 1 0.621189 0.244323 0.248577
345 1 0.757629 0.240846 0.244463
349 1 0.870282 0.248905 0.251001
322 1 0.0614627 0.310866 0.256609
326 1 0.187944 0.315611 0.253229
330 1 0.297804 0.330448 0.26206
334 1 0.433427 0.315276 0.242363
338 1 0.568645 0.31183 0.256586
342 1 0.688406 0.303238 0.252456
346 1 0.802725 0.301665 0.254632
350 1 0.936936 0.3056 0.238901
353 1 0.00746763 0.377987 0.254976
357 1 0.142289 0.386732 0.25325
361 1 0.238402 0.392221 0.262439
365 1 0.378743 0.372673 0.242827
369 1 0.508976 0.375554 0.252618
373 1 0.623067 0.378152 0.249301
377 1 0.751979 0.377486 0.24465
381 1 0.873125 0.373948 0.246876
354 1 0.0749316 0.440184 0.243379
358 1 0.18779 0.458608 0.259437
362 1 0.312789 0.443062 0.256677
366 1 0.446032 0.433637 0.242129
370 1 0.560989 0.434187 0.254456
374 1 0.685576 0.437422 0.250533
378 1 0.815567 0.431937 0.241484
382 1 0.936347 0.43366 0.247388
89 1 0.745412 0.25106 0.00192226
517 1 0.124404 0.00282927 0.495729
234 1 0.240321 0.499658 0.125915
7 1 0.19265 0.00343199 0.0631443
45 1 0.376238 0.12916 0.00222645
1293 1 0.38873 0.49736 0.256267
1181 1 0.865786 0.488098 0.124651
272 1 0.368403 0.06601 0.314839
606 1 0.939107 0.305781 0.495321
1295 1 0.444891 0.499726 0.316899
288 1 0.876641 0.0559014 0.312054
260 1 0.0030801 0.0587918 0.312942
264 1 0.126 0.0704554 0.30857
268 1 0.256541 0.0741525 0.312322
276 1 0.495008 0.0622406 0.304056
280 1 0.630475 0.0670264 0.310012
284 1 0.749128 0.0527748 0.307431
291 1 0.0723644 0.128779 0.312219
295 1 0.18124 0.128135 0.307816
299 1 0.317552 0.128225 0.321292
303 1 0.447428 0.130935 0.316859
307 1 0.565205 0.116813 0.30326
311 1 0.693572 0.120174 0.305878
315 1 0.817717 0.126061 0.310473
319 1 0.932686 0.126759 0.30339
292 1 0.993652 0.189022 0.320221
296 1 0.133062 0.192276 0.321887
300 1 0.254459 0.179139 0.308352
304 1 0.379665 0.194612 0.324248
308 1 0.499155 0.202114 0.315306
312 1 0.616533 0.190206 0.309876
316 1 0.743499 0.186173 0.319549
320 1 0.873093 0.193717 0.315657
323 1 0.063976 0.246813 0.313831
327 1 0.183369 0.258632 0.32477
331 1 0.31837 0.249489 0.3117
335 1 0.426327 0.258518 0.302561
339 1 0.567982 0.254308 0.309204
343 1 0.680601 0.251058 0.322842
347 1 0.801679 0.242061 0.314113
351 1 0.934321 0.253164 0.304161
324 1 0.991045 0.318078 0.302876
328 1 0.126814 0.313741 0.316384
332 1 0.242299 0.317211 0.313441
336 1 0.363898 0.319216 0.300951
340 1 0.506472 0.310704 0.31642
344 1 0.622883 0.311156 0.320084
348 1 0.746461 0.317287 0.313366
352 1 0.872341 0.312922 0.306985
355 1 0.0717939 0.38119 0.312308
359 1 0.184559 0.371379 0.327662
363 1 0.312649 0.384662 0.315902
367 1 0.446827 0.368244 0.304384
371 1 0.56949 0.370961 0.321506
375 1 0.687363 0.376582 0.302677
379 1 0.807427 0.37206 0.308111
383 1 0.936163 0.380083 0.307604
356 1 0.00811773 0.4346 0.309002
360 1 0.125845 0.450758 0.321191
364 1 0.252993 0.444408 0.325962
368 1 0.37747 0.440373 0.311577
372 1 0.495452 0.433286 0.30842
376 1 0.630885 0.437945 0.310679
380 1 0.742359 0.441572 0.318401
384 1 0.879086 0.44232 0.309178
416 1 0.875856 0.0649627 0.438466
492 1 0.257514 0.442543 0.434213
484 1 4.76943e-05 0.432549 0.424179
137 1 0.250596 0.00768049 0.120337
451 1 0.0610286 0.249788 0.441385
512 1 0.874216 0.438049 0.446594
386 1 0.062719 0.0687011 0.368286
504 1 0.616555 0.439771 0.442435
394 1 0.302894 0.0677188 0.38465
390 1 0.184274 0.0739488 0.377247
398 1 0.44664 0.0740151 0.383829
402 1 0.557157 0.0693339 0.377199
406 1 0.690561 0.0711321 0.368814
410 1 0.818999 0.0594056 0.368835
414 1 0.93425 0.0641763 0.376806
417 1 1.00158 0.127284 0.379983
421 1 0.122077 0.128179 0.372695
425 1 0.246413 0.125866 0.374715
429 1 0.381787 0.129895 0.375591
433 1 0.511593 0.140594 0.383683
437 1 0.632359 0.122761 0.373868
441 1 0.743954 0.126253 0.37582
445 1 0.885226 0.129575 0.367689
418 1 0.0648418 0.189656 0.38001
422 1 0.198671 0.194001 0.375959
426 1 0.324006 0.194686 0.384253
430 1 0.445941 0.196754 0.378709
434 1 0.568178 0.201377 0.374144
438 1 0.689858 0.195103 0.377768
442 1 0.818855 0.181526 0.375546
446 1 0.931092 0.197041 0.370801
449 1 0.997372 0.257286 0.37244
453 1 0.117165 0.257959 0.376196
457 1 0.255225 0.252951 0.378685
461 1 0.374649 0.263438 0.370081
465 1 0.500125 0.259499 0.382449
469 1 0.629732 0.257534 0.384714
473 1 0.742993 0.253216 0.387605
477 1 0.861149 0.252093 0.367203
450 1 0.0542174 0.316183 0.381343
454 1 0.186669 0.318034 0.400425
458 1 0.309165 0.313433 0.366321
462 1 0.442397 0.31258 0.375349
466 1 0.559146 0.315302 0.384329
470 1 0.694798 0.320794 0.380248
474 1 0.801138 0.319043 0.372091
478 1 0.937649 0.308819 0.36397
481 1 0.994257 0.369758 0.367232
485 1 0.122443 0.364398 0.374468
489 1 0.258021 0.372124 0.384574
493 1 0.372526 0.364775 0.368918
497 1 0.502721 0.373349 0.371527
501 1 0.633612 0.377891 0.370695
505 1 0.748529 0.38224 0.377712
509 1 0.874658 0.366806 0.363826
482 1 0.0616518 0.44608 0.376445
490 1 0.31993 0.429166 0.385569
494 1 0.435153 0.43054 0.367364
498 1 0.563394 0.448219 0.379374
502 1 0.687101 0.448787 0.36995
506 1 0.80267 0.444176 0.381032
510 1 0.926149 0.436927 0.371156
60 1 0.753392 0.117644 0.00538953
486 1 0.188504 0.434432 0.375254
139 1 0.314982 0.00219439 0.179442
500 1 0.48985 0.440104 0.426394
1179 1 0.814114 0.501042 0.189499
542 1 0.937793 0.0689635 0.490458
479 1 0.930244 0.256904 0.427285
400 1 0.38265 0.0637826 0.436196
73 1 0.249987 0.253219 -0.000549347
388 1 0.00207364 0.0533502 0.424445
392 1 0.128359 0.0644922 0.429545
396 1 0.24077 0.0536651 0.445748
404 1 0.516105 0.0705872 0.445391
408 1 0.630011 0.0578329 0.439232
412 1 0.757823 0.068635 0.434464
419 1 0.0598572 0.127489 0.436693
427 1 0.32405 0.127988 0.435904
431 1 0.458474 0.128528 0.442283
435 1 0.570978 0.129294 0.441929
439 1 0.68819 0.119384 0.435369
443 1 0.816027 0.120336 0.434642
447 1 0.936818 0.137674 0.435237
420 1 0.99361 0.199646 0.429142
424 1 0.12323 0.190392 0.442852
428 1 0.264456 0.182169 0.432106
432 1 0.382762 0.197298 0.433776
436 1 0.508979 0.193758 0.446671
440 1 0.623603 0.187418 0.429113
444 1 0.747711 0.185132 0.439533
448 1 0.874088 0.201191 0.436687
455 1 0.195557 0.243402 0.439353
459 1 0.317837 0.249563 0.443032
463 1 0.446411 0.248574 0.442807
467 1 0.56644 0.249352 0.438545
471 1 0.687019 0.243214 0.445459
475 1 0.805554 0.250355 0.438869
456 1 0.11669 0.313746 0.440296
460 1 0.254069 0.311263 0.459357
468 1 0.499559 0.316763 0.443777
472 1 0.632814 0.313248 0.439236
476 1 0.741633 0.30844 0.446445
480 1 0.871797 0.319805 0.431916
483 1 0.0642586 0.381103 0.431801
487 1 0.202547 0.384531 0.446889
495 1 0.441779 0.369551 0.43288
499 1 0.555177 0.386307 0.447394
503 1 0.684878 0.379644 0.442009
507 1 0.802364 0.3799 0.442506
511 1 0.940107 0.37578 0.43171
488 1 0.119265 0.443931 0.435631
496 1 0.384922 0.425542 0.441114
1055 1 0.934152 0.496808 0.0661195
85 1 0.623317 0.248072 0.00582484
54 1 0.695899 0.188797 0.0125439
1311 1 0.939945 0.492945 0.308071
609 1 0.00729871 0.371939 0.490388
389 1 0.12922 0.0129604 0.365837
637 1 0.87585 0.369968 0.499957
1041 1 0.430393 0.432504 0.00792529
10 1 0.322384 0.057874 0.000133777
1173 1 0.624122 0.495144 0.134176
141 1 0.382091 0.00383151 0.118496
570 1 0.80662 0.187795 0.499327
1297 1 0.497817 0.493642 0.24386
1183 1 0.941944 0.493162 0.182352
265 1 0.255394 0.0118474 0.257134
393 1 0.248871 0.00682631 0.37546
409 1 0.75689 0.00944689 0.375724
133 1 0.131347 0.00964571 0.123055
146 1 0.56147 0.00666758 0.184526
1043 1 0.568223 0.489214 0.0603671
263 1 0.191908 0.00892385 0.316755
574 1 0.944006 0.196032 0.491075
577 1 0.999793 0.250819 0.495321
1171 1 0.562484 0.488982 0.191163
74 1 0.306901 0.308277 0.00857698
581 1 0.123771 0.24711 0.498473
30 1 0.941249 0.0799457 0.0037682
27 1 0.817238 0.00496625 0.0683883
15 1 0.450181 0.00192303 0.0529114
1153 1 0.998985 0.492957 0.123414
1032 1 0.0569571 0.500187 0.0607211
622 1 0.439987 0.441042 0.498869
29 1 0.891432 0.00177926 0.00302496
554 1 0.316476 0.191013 0.499622
610 1 0.0628064 0.440103 0.496501
94 1 0.929341 0.30979 0.000929439
122 1 0.805523 0.440333 0.005404
569 1 0.815637 0.0636321 0.498631
1951 1 0.943283 0.493187 0.941132
1945 1 0.74923 0.492237 0.879213
655 1 0.432792 0.00815856 0.689443
653 1 0.381957 0.00916724 0.623587
1937 1 0.491812 0.497233 0.876018
634 1 0.811818 0.436279 0.507003
62 1 0.935996 0.191857 0.996101
51 1 0.49732 0.1269 0.995443
547 1 0.0566738 0.132233 0.554517
1815 1 0.690626 0.495747 0.81408
534 1 0.693033 0.0620223 0.504604
783 1 0.442021 0.00619679 0.823146
911 1 0.44476 0.00354024 0.928865
575 1 0.938831 0.13685 0.558225
543 1 0.94523 0.0112807 0.558754
598 1 0.688911 0.315395 0.506408
917 1 0.626512 0.0023416 0.87132
1809 1 0.492947 0.488284 0.750923
576 1 0.872899 0.188758 0.565183
579 1 0.0651671 0.24301 0.554489
583 1 0.183293 0.234916 0.559642
1045 1 0.63239 0.494495 0.993261
1565 1 0.86752 0.493796 0.505856
121 1 0.755292 0.375439 0.991379
607 1 0.934191 0.254039 0.551918
661 1 0.630323 0.00368836 0.632207
562 1 0.570027 0.187717 0.503905
588 1 0.253566 0.296498 0.562161
651 1 0.310167 0.00236438 0.690976
561 1 0.510557 0.126218 0.509202
1673 1 0.247882 0.497113 0.624601
38 1 0.18669 0.184869 0.991811
608 1 0.876756 0.309952 0.552509
580 1 0.995394 0.312925 0.552692
1033 1 0.228103 0.499692 0.995857
1547 1 0.308666 0.496438 0.57012
1805 1 0.373354 0.495248 0.737605
635 1 0.800449 0.375428 0.572114
639 1 0.936832 0.373644 0.553591
612 1 0.995218 0.441076 0.561856
98 1 0.0592608 0.433892 0.99559
1553 1 0.497695 0.499642 0.501954
585 1 0.250275 0.240591 0.499349
617 1 0.254924 0.367116 0.514572
524 1 0.24461 0.0669464 0.561613
97 1 0.0085166 0.370955 0.992593
2036 1 0.5695 0.000450639 0.941746
520 1 0.117232 0.0578375 0.55564
528 1 0.378982 0.0765308 0.570502
532 1 0.506473 0.0585931 0.559005
536 1 0.632857 0.0636379 0.567589
538 1 0.746381 0.0546778 0.566028
544 1 0.88038 0.0769136 0.55094
516 1 0.00455584 0.0697805 0.552586
551 1 0.180175 0.113745 0.560135
555 1 0.30988 0.13558 0.5641
559 1 0.451413 0.122603 0.571811
563 1 0.566678 0.111989 0.567882
540 1 0.685111 0.131252 0.567756
571 1 0.816512 0.130025 0.557668
552 1 0.120223 0.177625 0.54977
556 1 0.246658 0.182621 0.573846
560 1 0.374983 0.182696 0.566074
564 1 0.504058 0.190405 0.554234
568 1 0.6175 0.180734 0.566772
572 1 0.752712 0.180735 0.558813
548 1 0.999892 0.191719 0.551423
705 1 0.997031 0.255024 0.612897
587 1 0.316767 0.249603 0.565915
591 1 0.442104 0.244067 0.555226
595 1 0.571541 0.246247 0.56592
599 1 0.696943 0.241912 0.571617
603 1 0.806607 0.244079 0.568206
584 1 0.122152 0.306197 0.55127
592 1 0.373661 0.313627 0.577009
596 1 0.507331 0.31086 0.560922
600 1 0.617019 0.311046 0.559644
604 1 0.748734 0.305517 0.563594
611 1 0.0607794 0.383206 0.557543
615 1 0.182946 0.371947 0.556333
619 1 0.32267 0.377651 0.560777
623 1 0.430465 0.37722 0.568598
627 1 0.555532 0.374894 0.558394
631 1 0.687394 0.364503 0.566608
616 1 0.121351 0.446961 0.56296
620 1 0.242179 0.437185 0.561567
624 1 0.385523 0.447455 0.56058
628 1 0.49252 0.429155 0.574684
632 1 0.621025 0.436134 0.569202
636 1 0.740258 0.434617 0.566861
640 1 0.86977 0.434294 0.559189
625 1 0.496532 0.38102 0.503499
1004 1 0.235904 0.440682 0.937177
1949 1 0.867325 0.493465 0.88206
22 1 0.685019 0.0614833 0.995906
37 1 0.126768 0.129399 0.998347
1931 1 0.309951 0.495429 0.945117
586 1 0.319535 0.30578 0.503103
597 1 0.620587 0.245871 0.500886
642 1 0.0519989 0.0565463 0.618285
646 1 0.183322 0.063657 0.630958
650 1 0.314205 0.0647862 0.628487
654 1 0.444724 0.0651104 0.627158
658 1 0.565734 0.0561396 0.627373
662 1 0.684293 0.0651462 0.628651
666 1 0.818994 0.0688895 0.622077
670 1 0.945297 0.0596598 0.624129
677 1 0.116523 0.122127 0.608358
681 1 0.250738 0.117089 0.625271
685 1 0.377828 0.125971 0.633066
689 1 0.489746 0.130393 0.643112
693 1 0.627137 0.124906 0.625298
697 1 0.738929 0.130412 0.626113
699 1 0.810415 0.128449 0.682762
701 1 0.878303 0.120095 0.621677
673 1 0.994577 0.124965 0.615746
674 1 0.0610318 0.187222 0.632424
678 1 0.187444 0.170858 0.626364
682 1 0.322905 0.186955 0.6259
686 1 0.44055 0.192283 0.62496
690 1 0.561749 0.178654 0.623508
694 1 0.681104 0.183828 0.634385
698 1 0.819057 0.190637 0.62533
702 1 0.942154 0.192895 0.614778
709 1 0.123813 0.246748 0.617563
713 1 0.253035 0.241854 0.631996
717 1 0.373263 0.251584 0.625118
721 1 0.503999 0.243911 0.611523
725 1 0.633223 0.252455 0.630987
729 1 0.743824 0.251478 0.636573
733 1 0.871812 0.252181 0.616273
706 1 0.0602526 0.30467 0.623751
710 1 0.195824 0.307372 0.619553
714 1 0.30604 0.297718 0.633814
718 1 0.436128 0.29866 0.638275
722 1 0.568008 0.305587 0.630513
726 1 0.689771 0.313991 0.629711
730 1 0.816255 0.31014 0.630199
734 1 0.934426 0.305375 0.624558
741 1 0.123817 0.365022 0.622622
745 1 0.252918 0.373554 0.608622
749 1 0.371967 0.373622 0.629118
753 1 0.507399 0.36378 0.631494
757 1 0.620972 0.370971 0.624849
761 1 0.74646 0.383993 0.632614
765 1 0.874165 0.369997 0.629502
737 1 0.990358 0.364978 0.613373
746 1 0.311251 0.436492 0.622305
750 1 0.432378 0.428241 0.631345
754 1 0.550238 0.447975 0.630049
762 1 0.814784 0.437742 0.625384
766 1 0.928083 0.431669 0.622052
1693 1 0.878949 0.496546 0.611994
738 1 0.0720173 0.435128 0.628155
742 1 0.179713 0.434817 0.623969
70 1 0.183628 0.309323 0.990894
69 1 0.12695 0.251961 0.996863
602 1 0.809959 0.327644 0.501171
758 1 0.687992 0.43911 0.629915
907 1 0.312667 0.000348444 0.944066
1941 1 0.613685 0.489685 0.883151
645 1 0.116753 0.00401115 0.621787
578 1 0.0612581 0.30524 0.499487
523 1 0.318673 0.00158659 0.55493
648 1 0.127667 0.0577003 0.686979
652 1 0.252737 0.0595777 0.677493
656 1 0.38074 0.0695285 0.694568
660 1 0.506745 0.060281 0.691651
659 1 0.629839 0.0654227 0.689327
668 1 0.756856 0.0713514 0.685481
672 1 0.882267 0.0580722 0.68377
644 1 0.0131844 0.0832161 0.684091
675 1 0.0893375 0.129985 0.679205
679 1 0.180947 0.121715 0.69582
683 1 0.317999 0.117852 0.699433
687 1 0.425798 0.136456 0.697157
691 1 0.567672 0.11714 0.702563
695 1 0.684586 0.131366 0.69143
703 1 0.943334 0.11695 0.688906
676 1 0.997582 0.18609 0.687006
680 1 0.138101 0.193004 0.683139
684 1 0.259467 0.174501 0.683432
688 1 0.363066 0.183905 0.703395
692 1 0.501649 0.193288 0.69375
696 1 0.621172 0.179594 0.693492
700 1 0.75283 0.189973 0.691565
704 1 0.881524 0.190184 0.680111
707 1 0.0722846 0.248344 0.687315
711 1 0.192559 0.254926 0.683451
715 1 0.303217 0.243536 0.699757
719 1 0.423137 0.241161 0.696296
723 1 0.564489 0.247451 0.694351
727 1 0.688766 0.242084 0.690403
731 1 0.806526 0.251017 0.691977
735 1 0.935171 0.244872 0.685365
708 1 0.996319 0.307443 0.686712
712 1 0.126919 0.314438 0.691093
716 1 0.248668 0.314867 0.685878
720 1 0.373859 0.318391 0.687016
724 1 0.502168 0.302635 0.691944
728 1 0.625692 0.318374 0.699663
732 1 0.741428 0.315585 0.693939
736 1 0.872383 0.314791 0.687605
739 1 0.0630922 0.368456 0.674404
743 1 0.188651 0.380228 0.695931
747 1 0.302436 0.372555 0.67804
751 1 0.436421 0.372209 0.692452
755 1 0.572889 0.379722 0.684317
759 1 0.684109 0.374072 0.691231
763 1 0.815739 0.375354 0.686911
767 1 0.939911 0.36425 0.691615
740 1 0.0053487 0.430005 0.676045
748 1 0.238468 0.442282 0.690863
752 1 0.363236 0.423186 0.689773
756 1 0.511872 0.428968 0.696823
764 1 0.749564 0.437404 0.692553
768 1 0.867542 0.440278 0.69307
744 1 0.131432 0.435987 0.696091
53 1 0.624957 0.129417 0.993991
1813 1 0.630125 0.499465 0.750487
663 1 0.690532 0.00146315 0.687181
125 1 0.878634 0.376243 0.996431
760 1 0.632399 0.441747 0.691682
1019 1 0.812895 0.384017 0.937964
1691 1 0.810027 0.496973 0.691832
786 1 0.572572 0.0572647 0.749392
1947 1 0.799403 0.499041 0.93612
626 1 0.555107 0.438689 0.512093
770 1 0.0642058 0.0561579 0.745144
774 1 0.18886 0.0539331 0.739328
778 1 0.324182 0.0543686 0.762484
782 1 0.444951 0.0581737 0.754649
790 1 0.696575 0.0757981 0.751134
794 1 0.817505 0.0593637 0.739645
798 1 0.930746 0.0730964 0.75974
801 1 0.028539 0.128086 0.746622
805 1 0.123282 0.120429 0.755085
809 1 0.248717 0.117503 0.753636
813 1 0.368932 0.120102 0.760901
817 1 0.499569 0.120136 0.749882
664 1 0.631591 0.130835 0.756848
825 1 0.754269 0.132762 0.754369
829 1 0.873804 0.129841 0.751931
802 1 0.0762889 0.190385 0.754201
806 1 0.175019 0.182439 0.750927
810 1 0.304919 0.184599 0.756979
814 1 0.433743 0.18541 0.762478
818 1 0.563624 0.191845 0.760199
822 1 0.684323 0.187823 0.762105
826 1 0.819123 0.184203 0.738139
830 1 0.933796 0.182017 0.760866
833 1 0.993257 0.239403 0.74811
837 1 0.129088 0.250641 0.758385
841 1 0.239396 0.251398 0.751611
845 1 0.370138 0.25424 0.755173
849 1 0.50491 0.255839 0.759489
853 1 0.627229 0.25095 0.745484
857 1 0.755148 0.239513 0.759337
861 1 0.879376 0.243517 0.753654
834 1 0.0631361 0.318757 0.747598
838 1 0.187869 0.310486 0.749978
842 1 0.303515 0.316609 0.740032
846 1 0.431095 0.313472 0.763311
850 1 0.568167 0.307539 0.765784
854 1 0.684468 0.315074 0.751639
858 1 0.804941 0.312337 0.7491
862 1 0.937204 0.306102 0.742714
865 1 0.0151119 0.381307 0.739426
869 1 0.132174 0.37731 0.755877
873 1 0.248984 0.385992 0.748282
877 1 0.358574 0.372525 0.759478
881 1 0.502039 0.364715 0.750173
885 1 0.637651 0.37656 0.762314
889 1 0.74546 0.378423 0.745931
893 1 0.869248 0.374245 0.747047
870 1 0.187889 0.441425 0.756773
874 1 0.303174 0.442161 0.739066
878 1 0.430073 0.421162 0.752349
890 1 0.822376 0.442908 0.760109
894 1 0.934909 0.435392 0.755353
866 1 0.0640742 0.444354 0.756023
1053 1 0.868968 0.493306 1.00085
1803 1 0.304714 0.491358 0.816299
882 1 0.569548 0.439384 0.748533
886 1 0.692433 0.438394 0.751493
525 1 0.379558 0.02181 0.503807
950 1 0.689131 0.258116 0.941114
1807 1 0.428241 0.485719 0.804415
518 1 0.185299 0.0532486 0.504075
784 1 0.374255 0.0629498 0.824724
33 1 0.00714674 0.127629 0.99424
82 1 0.570697 0.313795 0.998862
1563 1 0.809391 0.498004 0.563269
90 1 0.813305 0.318967 0.998285
772 1 0.00651607 0.073163 0.800901
776 1 0.12209 0.0579718 0.806393
780 1 0.25794 0.0455425 0.821147
788 1 0.50188 0.0619107 0.813672
821 1 0.631916 0.0607639 0.812032
796 1 0.74704 0.0571453 0.81075
800 1 0.883427 0.0555932 0.819707
803 1 0.0690204 0.125029 0.81584
807 1 0.176715 0.112648 0.817219
811 1 0.303292 0.125587 0.816916
815 1 0.442313 0.120432 0.810301
819 1 0.564075 0.114638 0.802815
792 1 0.691802 0.11767 0.821618
827 1 0.814037 0.12955 0.805897
831 1 0.93698 0.119649 0.826419
808 1 0.128764 0.177419 0.815282
812 1 0.232753 0.171188 0.814616
816 1 0.362706 0.18753 0.815883
820 1 0.502405 0.182222 0.805831
824 1 0.626601 0.177873 0.827132
828 1 0.756483 0.182616 0.82317
832 1 0.873443 0.185495 0.82029
804 1 0.998036 0.174761 0.80843
835 1 0.0653288 0.25559 0.805421
839 1 0.185566 0.23719 0.8187
843 1 0.304724 0.262248 0.810698
847 1 0.433929 0.24655 0.819916
851 1 0.560267 0.248644 0.820396
855 1 0.679656 0.240155 0.822601
859 1 0.82165 0.245452 0.807285
863 1 0.936759 0.249624 0.812082
836 1 0.999678 0.300281 0.80059
840 1 0.129972 0.307433 0.81428
844 1 0.247212 0.322102 0.811793
848 1 0.371548 0.308645 0.817162
852 1 0.49373 0.307442 0.822335
856 1 0.6341 0.317176 0.818447
860 1 0.743035 0.305484 0.810278
864 1 0.878126 0.311945 0.806609
867 1 0.0516294 0.37974 0.81265
871 1 0.182085 0.375744 0.817018
875 1 0.315472 0.363879 0.829333
879 1 0.429665 0.378803 0.819804
883 1 0.544072 0.374743 0.82988
887 1 0.699829 0.370996 0.815053
891 1 0.806702 0.377507 0.802905
895 1 0.94022 0.364956 0.805309
872 1 0.122493 0.439265 0.809492
880 1 0.364825 0.429208 0.818778
884 1 0.488649 0.43868 0.823271
896 1 0.879414 0.432214 0.818597
868 1 0.993564 0.451451 0.810399
876 1 0.240724 0.432842 0.818282
944 1 0.370126 0.191058 0.950611
920 1 0.626617 0.0551208 0.940559
888 1 0.625153 0.438302 0.807138
892 1 0.753679 0.436476 0.809663
643 1 0.0561267 0.00522694 0.686076
1011 1 0.570587 0.375568 0.941899
638 1 0.933189 0.443135 0.505605
898 1 0.0709441 0.0349572 0.867365
902 1 0.197363 0.0601923 0.878576
906 1 0.314078 0.0607302 0.876923
910 1 0.445907 0.0685393 0.880106
914 1 0.569674 0.0596379 0.882282
918 1 0.695221 0.0611174 0.882752
926 1 0.94332 0.0403058 0.865354
933 1 0.122266 0.100009 0.879197
937 1 0.252368 0.127206 0.881872
941 1 0.365039 0.126985 0.879598
945 1 0.506456 0.116791 0.875661
949 1 0.626702 0.11746 0.889092
953 1 0.760689 0.122171 0.884816
957 1 0.874631 0.12721 0.881234
929 1 0.00220202 0.106345 0.873316
930 1 0.0515541 0.186207 0.872685
934 1 0.186996 0.176658 0.885073
938 1 0.305697 0.190449 0.882673
942 1 0.431068 0.179452 0.871164
946 1 0.561123 0.182582 0.866188
823 1 0.691654 0.17387 0.879022
954 1 0.817839 0.187841 0.880978
958 1 0.936034 0.194874 0.873103
965 1 0.124652 0.239771 0.876947
969 1 0.246397 0.248602 0.882124
973 1 0.370157 0.24038 0.885761
977 1 0.498404 0.230566 0.875384
981 1 0.61736 0.246311 0.880016
985 1 0.753993 0.24804 0.874748
989 1 0.879965 0.259498 0.867753
961 1 0.99949 0.244348 0.872739