ITEM: TIMESTEP
100000
ITEM: NUMBER OF ATOMS
400
ITEM: BOX BOUNDS pp pp pp
0.0000000000000000e+00 2.2360679774997898e+01
0.0000000000000000e+00 2.2360679774997898e+01
-5.5901699437494745e-01 5.5901699437494745e-01
ITEM: ATOMS id type xs ys zs
284 1 0.0534781 0.366117 0.5
13 1 0.0168275 0.485123 0.5
33 1 0.0659632 0.108064 0.5
267 1 0.332908 0.0727738 0.5
171 1 0.199798 0.386651 0.5
124 1 0.132332 0.249039 0.5
55 1 0.420584 0.0838136 0.5
271 1 0.107781 0.00876091 0.5
170 1 0.181428 0.0637369 0.5
90 1 0.284527 0.0659372 0.5
103 1 0.381673 0.0486099 0.5
278 1 0.117252 0.17836 0.5
50 1 0.169102 0.494269 0.5
370 1 0.491243 0.463196 0.5
40 1 0.374074 0.0944452 0.5
77 1 0.221097 0.472246 0.5
131 1 0.0977838 0.350375 0.5
225 1 0.036298 0.0593767 0.5
130 1 0.104504 0.501149 0.5
141 1 0.233558 0.0470062 0.5
81 1 0.23592 0.168825 0.5
395 1 0.278723 0.161702 0.5
226 1 0.262539 0.203498 0.5
371 1 0.31174 0.110167 0.5
70 1 0.0176725 0.0979112 0.5
96 1 0.220276 0.230053 0.5
39 1 0.147515 0.0348552 0.5
20 1 0.169255 0.424935 0.5
340 1 0.0133228 0.385767 0.5
58 1 0.1944 0.190138 0.5
30 1 0.0459399 0.209158 0.5
280 1 0.201289 0.1106 0.5
220 1 0.215002 0.2845 0.5
329 1 0.321475 0.176747 0.5
256 1 0.139477 0.459286 0.5
43 1 0.164422 0.150411 0.5
165 1 0.00282889 0.280006 0.5
338 1 0.15937 0.105052 0.5
101 1 0.348279 0.134108 0.5
63 1 0.149889 0.381242 0.5
319 1 0.116513 0.118291 0.5
251 1 0.100978 0.414745 0.5
393 1 0.439718 0.384127 0.5
377 1 0.389623 0.31093 0.5
274 1 0.278593 0.267093 0.5
398 1 0.263416 0.108871 0.5
316 1 0.366096 0.185905 0.5
105 1 0.465974 0.346658 0.5
186 1 0.0651034 0.320726 0.5
210 1 0.178993 0.25113 0.5
213 1 0.339008 0.26977 0.5
399 1 0.404188 0.22017 0.5
136 1 0.385489 0.258803 0.5
146 1 0.410881 0.135027 0.5
93 1 0.0736165 0.256403 0.5
245 1 0.297067 0.32763 0.5
112 1 0.0707235 0.16955 0.5
182 1 0.0883379 0.208782 0.5
298 1 0.389459 0.400957 0.5
309 1 0.311534 0.228787 0.5
348 1 0.415247 0.179157 0.5
307 1 0.0117315 0.333447 0.5
19 1 0.346568 0.321972 0.5
178 1 0.343556 0.427867 0.5
177 1 0.434103 0.253175 0.5
139 1 0.406005 0.353751 0.5
86 1 0.316354 0.36302 0.5
196 1 0.46112 0.431078 0.5
110 1 0.0803228 0.0651364 0.5
209 1 0.257668 0.30309 0.5
302 1 0.286039 0.44613 0.5
44 1 0.363133 0.36764 0.5
287 1 0.45277 0.301991 0.5
149 1 0.343324 0.0162032 0.5
342 1 0.0328934 0.0103828 0.5
68 1 0.197708 0.343981 0.5
94 1 0.122921 0.290822 0.5
355 1 0.173676 0.301087 0.5
357 1 0.254956 0.409027 0.5
197 1 0.389512 0.447 0.5
181 1 0.486523 0.255355 0.5
47 1 0.478691 0.206221 0.5
1 1 0.255233 0.347533 0.5
17 1 0.297984 0.399789 0.5
158 1 0.335051 0.477156 0.5
295 1 0.462484 0.0725094 0.5
193 1 0.455975 0.14566 0.5
344 1 0.216319 0.428822 0.5
7 1 0.0444108 0.421356 0.5
145 1 0.488724 0.109398 0.5
84 1 0.298185 0.00196712 0.5
109 1 0.125792 0.0747062 0.5
288 1 0.0619632 0.476179 0.5
12 1 0.138209 0.333 0.5
224 1 0.458968 0.0268392 0.5
240 1 0.438074 0.475641 0.5
238 1 0.0196952 0.155974 0.5
308 1 0.00183114 0.207299 0.5
184 1 0.394562 0.494689 0.5
379 1 0.238755 0.00417147 0.5
334 1 0.0826124 0.666091 0.5
69 1 0.214328 0.616152 0.5
118 1 0.00131624 0.525871 0.5
264 1 0.350717 0.925055 0.5
71 1 0.00247018 0.911083 0.5
286 1 0.0524108 0.520174 0.5
381 1 0.421295 0.899118 0.5
28 1 0.168184 0.683051 0.5
194 1 0.356565 0.570351 0.5
53 1 0.2688 0.55249 0.5
41 1 0.428624 0.673427 0.5
180 1 0.0363266 0.574801 0.5
106 1 0.129393 0.545239 0.5
6 1 0.179414 0.589864 0.5
62 1 0.324799 0.663736 0.5
88 1 0.325007 0.530274 0.5
346 1 0.173741 0.633936 0.5
262 1 0.123844 0.597365 0.5
322 1 0.208721 0.660389 0.5
243 1 0.247836 0.682367 0.5
387 1 0.26039 0.635879 0.5
122 1 0.395825 0.589523 0.5
218 1 0.440789 0.551932 0.5
254 1 0.0877357 0.618989 0.5
52 1 0.172536 0.783382 0.5
293 1 0.345214 0.611284 0.5
325 1 0.0122253 0.74317 0.5
120 1 0.463517 0.872322 0.5
365 1 0.127844 0.695344 0.5
157 1 0.126524 0.644124 0.5
229 1 0.290845 0.695505 0.5
255 1 0.33091 0.720657 0.5
169 1 0.29933 0.751069 0.5
221 1 0.0839763 0.552033 0.5
239 1 0.0581552 0.892241 0.5
114 1 0.15555 0.73887 0.5
212 1 0.11855 0.763308 0.5
73 1 0.204457 0.749537 0.5
378 1 0.302342 0.628065 0.5
235 1 0.309193 0.574537 0.5
282 1 0.442291 0.605073 0.5
144 1 0.0960475 0.727067 0.5
64 1 0.0734017 0.785275 0.5
18 1 0.207628 0.705492 0.5
277 1 0.359068 0.761541 0.5
192 1 0.379513 0.686465 0.5
314 1 0.0318689 0.702001 0.5
358 1 0.190326 0.87104 0.5
108 1 0.244873 0.732632 0.5
156 1 0.316737 0.791065 0.5
188 1 0.468517 0.645955 0.5
83 1 0.44443 0.773453 0.5
23 1 0.357158 0.971826 0.5
285 1 0.474336 0.918098 0.5
121 1 0.39322 0.950534 0.5
204 1 0.136011 0.81192 0.5
300 1 0.268065 0.791215 0.5
351 1 0.427537 0.717738 0.5
75 1 0.393906 0.842743 0.5
127 1 0.403242 0.782534 0.5
375 1 0.343316 0.866333 0.5
242 1 0.110736 0.964734 0.5
392 1 0.290381 0.50027 0.5
356 1 0.236763 0.522417 0.5
185 1 0.0811574 0.83052 0.5
328 1 0.295129 0.829731 0.5
266 1 0.308367 0.946569 0.5
275 1 0.36403 0.806692 0.5
231 1 0.471199 0.735529 0.5
195 1 0.00564996 0.960356 0.5
294 1 0.0567004 0.937578 0.5
27 1 0.0999812 0.920015 0.5
324 1 0.145299 0.887542 0.5
349 1 0.231569 0.846527 0.5
8 1 0.30729 0.902748 0.5
296 1 0.149511 0.986245 0.5
335 1 0.224973 0.785517 0.5
283 1 0.24182 0.917112 0.5
368 1 0.265149 0.964704 0.5
4 1 0.4379 0.818596 0.5
385 1 0.468909 0.689878 0.5
244 1 0.494517 0.6066 0.5
98 1 0.393552 0.636408 0.5
129 1 0.0260377 0.834774 0.5
57 1 0.186842 0.825998 0.5
76 1 0.37961 0.895831 0.5
347 1 0.189922 0.545389 0.5
24 1 0.395691 0.539291 0.5
92 1 0.154393 0.937433 0.5
310 1 0.225233 0.570737 0.5
29 1 0.221204 0.961719 0.5
61 1 0.271503 0.870568 0.5
333 1 0.486784 0.786142 0.5
11 1 0.194136 0.917397 0.5
219 1 0.48978 0.838609 0.5
25 1 0.437724 0.947578 0.5
151 1 0.0716324 0.981943 0.5
263 1 0.468588 0.977585 0.5
217 1 0.416274 0.987179 0.5
261 1 0.0358022 0.62222 0.5
198 1 0.0187306 0.786089 0.5
273 1 0.191604 0.999475 0.5
176 1 0.476606 0.506399 0.5
74 1 0.972714 0.111073 0.5
257 1 0.697665 0.0365384 0.5
160 1 0.955004 0.408176 0.5
107 1 0.974058 0.311237 0.5
126 1 0.500218 0.295639 0.5
332 1 0.672713 0.0874659 0.5
312 1 0.750701 0.481668 0.5
353 1 0.573456 0.488467 0.5
341 1 0.509007 0.0237126 0.5
352 1 0.973226 0.485717 0.5
203 1 0.932603 0.0644778 0.5
269 1 0.953478 0.271489 0.5
252 1 0.648254 0.128534 0.5
304 1 0.745746 0.196404 0.5
270 1 0.882395 0.220762 0.5
376 1 0.568008 0.00366725 0.5
249 1 0.555953 0.113122 0.5
360 1 0.844091 0.478404 0.5
367 1 0.939638 0.228963 0.5
207 1 0.82848 0.0077591 0.5
187 1 0.897379 0.105264 0.5
123 1 0.893814 0.264233 0.5
132 1 0.938237 0.150239 0.5
82 1 0.553141 0.159977 0.5
366 1 0.548654 0.0450534 0.5
326 1 0.798328 0.468613 0.5
321 1 0.847989 0.0465721 0.5
167 1 0.846235 0.278246 0.5
113 1 0.899505 0.0307952 0.5
227 1 0.991271 0.0523368 0.5
179 1 0.637568 0.0580515 0.5
59 1 0.697701 0.131882 0.5
161 1 0.661719 0.217272 0.5
175 1 0.785272 0.0875718 0.5
26 1 0.587159 0.0730335 0.5
172 1 0.587272 0.248381 0.5
166 1 0.574094 0.201734 0.5
259 1 0.605592 0.119622 0.5
111 1 0.772228 0.12919 0.5
345 1 0.730504 0.104413 0.5
9 1 0.913239 0.191693 0.5
135 1 0.789707 0.422242 0.5
89 1 0.608185 0.16137 0.5
369 1 0.705316 0.222116 0.5
189 1 0.633933 0.313884 0.5
154 1 0.879839 0.16203 0.5
152 1 0.841377 0.412404 0.5
297 1 0.529008 0.237364 0.5
78 1 0.617405 0.211123 0.5
364 1 0.654217 0.171578 0.5
16 1 0.825938 0.146533 0.5
15 1 0.707579 0.178254 0.5
354 1 0.9122 0.311081 0.5
3 1 0.906637 0.382115 0.5
315 1 0.509224 0.349122 0.5
153 1 0.626275 0.369942 0.5
211 1 0.819751 0.323047 0.5
97 1 0.803826 0.267226 0.5
248 1 0.500806 0.412149 0.5
265 1 0.546951 0.310092 0.5
21 1 0.586211 0.290964 0.5
10 1 0.79458 0.180641 0.5
247 1 0.803475 0.370273 0.5
258 1 0.900042 0.427928 0.5
289 1 0.583138 0.399898 0.5
216 1 0.546695 0.435322 0.5
45 1 0.590511 0.333974 0.5
48 1 0.635578 0.261595 0.5
313 1 0.83461 0.232161 0.5
150 1 0.74297 0.0437111 0.5
87 1 0.78977 0.0405663 0.5
394 1 0.841537 0.187484 0.5
205 1 0.641696 0.414397 0.5
191 1 0.674225 0.380406 0.5
268 1 0.771222 0.231715 0.5
38 1 0.769451 0.305108 0.5
373 1 0.867404 0.32348 0.5
236 1 0.670193 0.455466 0.5
60 1 0.619388 0.475355 0.5
291 1 0.726482 0.30996 0.5
190 1 0.733177 0.260186 0.5
159 1 0.991645 0.445386 0.5
128 1 0.940422 0.451781 0.5
260 1 0.70683 0.419158 0.5
32 1 0.758152 0.38702 0.5
215 1 0.720019 0.353441 0.5
232 1 0.679325 0.299714 0.5
384 1 0.889924 0.481627 0.5
66 1 0.832114 0.10268 0.5
34 1 0.589203 0.444031 0.5
336 1 0.748614 0.432036 0.5
155 1 0.532257 0.478055 0.5
100 1 0.523553 0.191688 0.5
230 1 0.863226 0.36838 0.5
174 1 0.540521 0.391251 0.5
91 1 0.619196 0.020324 0.5
331 1 0.506518 0.0687662 0.5
317 1 0.951483 0.356752 0.5
5 1 0.70362 0.480963 0.5
234 1 0.979044 0.00724941 0.5
67 1 0.511123 0.150572 0.5
137 1 0.654867 0.498764 0.5
163 1 0.838927 0.835263 0.5
36 1 0.981571 0.568247 0.5
303 1 0.626358 0.953332 0.5
299 1 0.768333 0.613965 0.5
140 1 0.779257 0.666389 0.5
54 1 0.929593 0.650248 0.5
168 1 0.511708 0.689734 0.5
104 1 0.817563 0.621434 0.5
350 1 0.915318 0.937084 0.5
383 1 0.519505 0.921417 0.5
65 1 0.518531 0.643701 0.5
246 1 0.603493 0.871325 0.5
206 1 0.612738 0.525093 0.5
272 1 0.577008 0.925166 0.5
138 1 0.778994 0.516689 0.5
343 1 0.866426 0.616404 0.5
372 1 0.538958 0.594578 0.5
237 1 0.933131 0.6957 0.5
133 1 0.982588 0.709574 0.5
143 1 0.518424 0.743608 0.5
80 1 0.901698 0.589454 0.5
200 1 0.745712 0.720462 0.5
147 1 0.731794 0.662007 0.5
31 1 0.55815 0.658124 0.5
386 1 0.878377 0.854944 0.5
318 1 0.587468 0.5606 0.5
102 1 0.641461 0.579578 0.5
79 1 0.684969 0.655396 0.5
241 1 0.863352 0.562629 0.5
323 1 0.781183 0.981283 0.5
42 1 0.9606 0.821979 0.5
214 1 0.733993 0.521888 0.5
56 1 0.733669 0.568446 0.5
279 1 0.797533 0.713609 0.5
223 1 0.859221 0.739939 0.5
305 1 0.526631 0.966985 0.5
2 1 0.903514 0.533029 0.5
380 1 0.571575 0.707421 0.5
37 1 0.647244 0.685944 0.5
162 1 0.949984 0.738326 0.5
183 1 0.941379 0.550868 0.5
388 1 0.885043 0.98203 0.5
119 1 0.601641 0.654333 0.5
117 1 0.675028 0.982231 0.5
228 1 0.690891 0.558519 0.5
35 1 0.675337 0.605793 0.5
363 1 0.526888 0.876311 0.5
250 1 0.579802 0.614844 0.5
99 1 0.964324 0.94036 0.5
301 1 0.63381 0.624146 0.5
222 1 0.773974 0.76406 0.5
391 1 0.900408 0.745337 0.5
339 1 0.704768 0.697017 0.5
359 1 0.821713 0.531894 0.5
116 1 0.990516 0.861409 0.5
292 1 0.624175 0.830562 0.5
320 1 0.869823 0.909788 0.5
382 1 0.794556 0.803791 0.5
337 1 0.92731 0.781725 0.5
362 1 0.973871 0.77701 0.5
374 1 0.536182 0.825261 0.5
306 1 0.934586 0.507012 0.5
46 1 0.614486 0.722412 0.5
14 1 0.646856 0.767215 0.5
115 1 0.672325 0.726855 0.5
125 1 0.885791 0.808187 0.5
400 1 0.578704 0.81361 0.5
164 1 0.671757 0.815184 0.5
72 1 0.718179 0.769287 0.5
290 1 0.597489 0.771722 0.5
361 1 0.834669 0.678649 0.5
142 1 0.748674 0.849938 0.5
327 1 0.640383 0.906853 0.5
281 1 0.917094 0.88654 0.5
134 1 0.550535 0.773759 0.5
330 1 0.716828 0.813963 0.5
397 1 0.841557 0.790284 0.5
253 1 0.79526 0.859981 0.5
49 1 0.785349 0.571227 0.5
390 1 0.732187 0.98741 0.5
276 1 0.696313 0.855531 0.5
148 1 0.971314 0.615457 0.5
199 1 0.784934 0.937681 0.5
233 1 0.829989 0.960646 0.5
396 1 0.653439 0.862549 0.5
311 1 0.826063 0.894932 0.5
202 1 0.983501 0.663968 0.5
201 1 0.931662 0.990004 0.5
51 1 0.713516 0.939568 0.5
85 1 0.747781 0.915143 0.5
95 1 0.683215 0.904703 0.5
173 1 0.891824 0.68378 0.5
208 1 0.959843 0.898072 0.5
389 1 0.551042 0.540673 0.5
22 1 0.501989 0.553729 0.5
