ITEM: TIMESTEP
100000
ITEM: NUMBER OF ATOMS
400
ITEM: BOX BOUNDS pp pp pp
0.0000000000000000e+00 2.0000000000000000e+01
0.0000000000000000e+00 2.0000000000000000e+01
-5.0000000000000000e-01 5.0000000000000000e-01
ITEM: ATOMS id type xs ys zs
138 1 0.0490681 0.0559098 0.5
250 1 0.0953974 0.0458987 0.5
339 1 0.201513 0.0209713 0.5
340 1 0.404439 0.436339 0.5
261 1 0.232901 0.0609808 0.5
2 1 0.46098 0.241519 0.5
38 1 0.356879 0.00558017 0.5
89 1 0.496374 0.333674 0.5
186 1 0.17799 0.0722936 0.5
282 1 0.283803 0.0471773 0.5
109 1 0.468256 0.373916 0.5
307 1 0.249578 0.0112684 0.5
316 1 0.412518 0.0229478 0.5
154 1 0.0264818 0.103929 0.5
290 1 0.0842334 0.0925587 0.5
46 1 0.131114 0.0780556 0.5
56 1 0.384168 0.0739721 0.5
156 1 0.433338 0.0670739 0.5
90 1 0.464529 0.421879 0.5
397 1 0.0630349 0.137053 0.5
334 1 0.114413 0.136533 0.5
187 1 0.165464 0.120143 0.5
304 1 0.219373 0.111428 0.5
170 1 0.332767 0.0477548 0.5
212 1 0.319756 0.0949835 0.5
104 1 0.431634 0.11824 0.5
149 1 0.482216 0.0937501 0.5
247 1 0.0634031 0.00885646 0.5
76 1 0.148788 0.171881 0.5
327 1 0.199029 0.156528 0.5
345 1 0.267481 0.094563 0.5
242 1 0.46798 0.151426 0.5
267 1 0.0574401 0.468186 0.5
36 1 0.044143 0.196646 0.5
183 1 0.0970056 0.180374 0.5
1 1 0.179619 0.212052 0.5
135 1 0.248854 0.151614 0.5
275 1 0.298671 0.139429 0.5
151 1 0.335853 0.170621 0.5
350 1 0.367022 0.124225 0.5
335 1 0.443244 0.193883 0.5
360 1 0.0109471 0.160471 0.5
319 1 0.0811704 0.236413 0.5
23 1 0.129627 0.22591 0.5
27 1 0.365865 0.205767 0.5
148 1 0.0563833 0.281545 0.5
222 1 0.116055 0.272855 0.5
20 1 0.164329 0.261745 0.5
320 1 0.2276 0.198245 0.5
228 1 0.288688 0.189477 0.5
234 1 0.323077 0.227895 0.5
302 1 0.362144 0.257492 0.5
144 1 0.395869 0.16244 0.5
121 1 0.491125 0.495435 0.5
263 1 0.160983 0.318646 0.5
216 1 0.215995 0.304166 0.5
29 1 0.223163 0.253827 0.5
11 1 0.268109 0.236193 0.5
225 1 0.341583 0.325229 0.5
155 1 0.4088 0.235567 0.5
73 1 0.0566583 0.331179 0.5
49 1 0.113588 0.32733 0.5
362 1 0.147243 0.367632 0.5
184 1 0.242204 0.342954 0.5
353 1 0.262888 0.288161 0.5
318 1 0.31135 0.277018 0.5
229 1 0.46805 0.291575 0.5
88 1 0.437073 0.330868 0.5
253 1 0.0956776 0.37728 0.5
361 1 0.175097 0.410025 0.5
391 1 0.19525 0.358425 0.5
188 1 0.295438 0.325519 0.5
354 1 0.32024 0.367904 0.5
356 1 0.387763 0.339459 0.5
227 1 0.0377193 0.375632 0.5
271 1 0.160404 0.456932 0.5
32 1 0.227367 0.405848 0.5
141 1 0.273432 0.381459 0.5
270 1 0.364742 0.398884 0.5
77 1 0.401474 0.289237 0.5
201 1 0.0251659 0.428866 0.5
143 1 0.127319 0.415823 0.5
246 1 0.2116 0.452889 0.5
166 1 0.26686 0.435004 0.5
383 1 0.302214 0.468123 0.5
331 1 0.32018 0.417029 0.5
137 1 0.415675 0.383689 0.5
164 1 0.152705 0.0346104 0.5
336 1 0.075866 0.420615 0.5
196 1 0.106596 0.461145 0.5
179 1 0.24698 0.486689 0.5
139 1 0.0283638 0.242504 0.5
42 1 0.360994 0.459819 0.5
22 1 0.489852 0.194422 0.5
123 1 0.448493 0.470982 0.5
321 1 0.0117507 0.305017 0.5
37 1 0.475901 0.0289902 0.5
7 1 0.401997 0.486685 0.5
200 1 0.00678592 0.477153 0.5
348 1 0.00270292 0.0193152 0.5
293 1 0.00495487 0.8847 0.5
341 1 0.0910007 0.516103 0.5
173 1 0.232218 0.536099 0.5
208 1 0.396546 0.971776 0.5
328 1 0.493333 0.641259 0.5
314 1 0.466612 0.696396 0.5
352 1 0.0249812 0.597083 0.5
40 1 0.0693842 0.560236 0.5
379 1 0.119576 0.564122 0.5
10 1 0.373853 0.927568 0.5
347 1 0.324694 0.55245 0.5
134 1 0.394478 0.533822 0.5
373 1 0.443937 0.523637 0.5
292 1 0.112526 0.996147 0.5
142 1 0.0581966 0.638885 0.5
174 1 0.119077 0.613992 0.5
60 1 0.170593 0.543185 0.5
323 1 0.278192 0.570656 0.5
8 1 0.26109 0.617961 0.5
162 1 0.312966 0.604993 0.5
163 1 0.475179 0.562052 0.5
256 1 0.334375 0.953721 0.5
374 1 0.157054 0.653433 0.5
303 1 0.166356 0.595374 0.5
226 1 0.368987 0.581724 0.5
388 1 0.454845 0.611183 0.5
217 1 0.0553023 0.69251 0.5
343 1 0.104216 0.663975 0.5
34 1 0.202435 0.638561 0.5
93 1 0.214847 0.585223 0.5
94 1 0.297087 0.651403 0.5
169 1 0.355858 0.632114 0.5
243 1 0.427868 0.570495 0.5
180 1 0.096409 0.729302 0.5
80 1 0.140688 0.714344 0.5
219 1 0.242738 0.669649 0.5
337 1 0.332768 0.68792 0.5
207 1 0.406512 0.615802 0.5
133 1 0.457737 0.744447 0.5
272 1 0.0336386 0.737362 0.5
67 1 0.174706 0.747592 0.5
206 1 0.192071 0.698122 0.5
231 1 0.28023 0.705673 0.5
308 1 0.382089 0.671836 0.5
136 1 0.436863 0.65716 0.5
326 1 0.0357488 0.516234 0.5
189 1 0.0328315 0.785992 0.5
195 1 0.0821286 0.779719 0.5
387 1 0.130317 0.763283 0.5
220 1 0.225531 0.77756 0.5
178 1 0.232046 0.730062 0.5
108 1 0.270984 0.758134 0.5
125 1 0.320354 0.739612 0.5
103 1 0.421143 0.708984 0.5
235 1 0.119758 0.816897 0.5
44 1 0.165181 0.79727 0.5
301 1 0.265315 0.822481 0.5
324 1 0.357832 0.769901 0.5
101 1 0.368232 0.720999 0.5
100 1 0.281877 0.519067 0.5
115 1 0.0685171 0.828284 0.5
97 1 0.209609 0.834519 0.5
385 1 0.31507 0.789351 0.5
214 1 0.439147 0.797365 0.5
14 1 0.0528703 0.879976 0.5
376 1 0.102292 0.861426 0.5
312 1 0.160002 0.85214 0.5
394 1 0.235007 0.874929 0.5
4 1 0.298406 0.858479 0.5
325 1 0.389368 0.810191 0.5
117 1 0.405727 0.764686 0.5
114 1 0.476058 0.838894 0.5
126 1 0.09119 0.913028 0.5
392 1 0.138884 0.8955 0.5
99 1 0.189793 0.890523 0.5
349 1 0.416914 0.909588 0.5
389 1 0.42365 0.854 0.5
63 1 0.465561 0.893758 0.5
157 1 0.0403869 0.924533 0.5
311 1 0.183447 0.938299 0.5
25 1 0.221518 0.972449 0.5
18 1 0.227473 0.921092 0.5
132 1 0.28259 0.911649 0.5
120 1 0.441 0.953611 0.5
274 1 0.354748 0.50775 0.5
79 1 0.485025 0.979926 0.5
6 1 0.0702885 0.962428 0.5
82 1 0.130154 0.950317 0.5
106 1 0.16495 0.98726 0.5
393 1 0.271824 0.96713 0.5
47 1 0.334969 0.89452 0.5
371 1 0.338792 0.830401 0.5
78 1 0.378094 0.858597 0.5
322 1 0.495817 0.93346 0.5
315 1 0.489118 0.789182 0.5
176 1 0.01964 0.835861 0.5
28 1 0.0196475 0.974595 0.5
105 1 0.0105404 0.648023 0.5
396 1 0.140328 0.504854 0.5
296 1 0.196629 0.503514 0.5
258 1 0.309935 0.999127 0.5
129 1 0.552815 0.436304 0.5
381 1 0.528588 0.394359 0.5
273 1 0.712564 0.015372 0.5
251 1 0.769042 0.00722697 0.5
146 1 0.94274 0.177407 0.5
245 1 0.904466 0.0381572 0.5
118 1 0.956731 0.0395687 0.5
285 1 0.612008 0.0409521 0.5
213 1 0.664464 0.0318277 0.5
24 1 0.752018 0.0508884 0.5
102 1 0.805013 0.0443162 0.5
369 1 0.855316 0.039897 0.5
199 1 0.938977 0.094326 0.5
158 1 0.989503 0.0765096 0.5
172 1 0.564461 0.0563631 0.5
140 1 0.648711 0.0791829 0.5
171 1 0.69844 0.0734976 0.5
248 1 0.787115 0.0876706 0.5
400 1 0.838981 0.0880879 0.5
375 1 0.889938 0.088074 0.5
175 1 0.976436 0.126498 0.5
202 1 0.540489 0.107679 0.5
370 1 0.592615 0.10522 0.5
21 1 0.678467 0.115886 0.5
342 1 0.738048 0.0986713 0.5
241 1 0.864056 0.132252 0.5
39 1 0.943792 0.225896 0.5
165 1 0.620331 0.147146 0.5
317 1 0.700343 0.209716 0.5
83 1 0.759487 0.142377 0.5
278 1 0.815374 0.137827 0.5
367 1 0.915182 0.136901 0.5
72 1 0.996726 0.352113 0.5
364 1 0.572543 0.151735 0.5
265 1 0.59826 0.191392 0.5
92 1 0.713763 0.159008 0.5
333 1 0.791264 0.184231 0.5
209 1 0.849462 0.203966 0.5
382 1 0.974655 0.260484 0.5
346 1 0.504776 0.448066 0.5
380 1 0.779167 0.493498 0.5
398 1 0.648344 0.216617 0.5
355 1 0.746897 0.216849 0.5
239 1 0.754063 0.275001 0.5
299 1 0.809681 0.230411 0.5
112 1 0.889962 0.177046 0.5
85 1 0.528569 0.0103908 0.5
153 1 0.554564 0.253846 0.5
107 1 0.662184 0.169093 0.5
386 1 0.654523 0.265502 0.5
289 1 0.924581 0.268316 0.5
223 1 0.886197 0.232611 0.5
159 1 0.852592 0.467542 0.5
344 1 0.691091 0.472393 0.5
177 1 0.564568 0.298282 0.5
5 1 0.60414 0.237232 0.5
230 1 0.708605 0.255749 0.5
338 1 0.804804 0.288765 0.5
161 1 0.523322 0.157581 0.5
16 1 0.508222 0.24303 0.5
71 1 0.61257 0.290199 0.5
58 1 0.692062 0.305189 0.5
192 1 0.772787 0.33324 0.5
268 1 0.851827 0.309712 0.5
91 1 0.847729 0.261478 0.5
283 1 0.952974 0.315827 0.5
17 1 0.54435 0.343207 0.5
9 1 0.517115 0.290033 0.5
395 1 0.67794 0.374642 0.5
95 1 0.726887 0.337703 0.5
237 1 0.8966 0.364838 0.5
69 1 0.901855 0.309743 0.5
62 1 0.637221 0.473374 0.5
113 1 0.594389 0.339202 0.5
287 1 0.645294 0.326309 0.5
31 1 0.748361 0.3825 0.5
372 1 0.795544 0.379141 0.5
75 1 0.977884 0.402065 0.5
64 1 0.551971 0.203316 0.5
377 1 0.578162 0.38956 0.5
19 1 0.657354 0.421405 0.5
122 1 0.716941 0.41805 0.5
269 1 0.77649 0.433097 0.5
33 1 0.845948 0.362514 0.5
236 1 0.92934 0.428167 0.5
313 1 0.943818 0.362709 0.5
249 1 0.96019 0.468248 0.5
197 1 0.608699 0.425808 0.5
306 1 0.624875 0.376756 0.5
221 1 0.737943 0.463514 0.5
119 1 0.831434 0.422715 0.5
224 1 0.880076 0.424596 0.5
41 1 0.908894 0.470501 0.5
3 1 0.587661 0.485312 0.5
390 1 0.993265 0.206614 0.5
366 1 0.541024 0.482142 0.5
111 1 0.516203 0.0567313 0.5
281 1 0.983489 0.521801 0.5
291 1 0.878947 0.509387 0.5
280 1 0.625559 0.989298 0.5
215 1 0.671765 0.978289 0.5
363 1 0.627204 0.52896 0.5
96 1 0.933262 0.534413 0.5
43 1 0.734727 0.970324 0.5
48 1 0.953804 0.677282 0.5
365 1 0.569631 0.534473 0.5
233 1 0.661944 0.564429 0.5
86 1 0.715594 0.562245 0.5
359 1 0.806639 0.57052 0.5
15 1 0.854514 0.549563 0.5
30 1 0.965584 0.62795 0.5
52 1 0.54328 0.634165 0.5
298 1 0.564228 0.592363 0.5
368 1 0.605537 0.570149 0.5
329 1 0.753128 0.599016 0.5
160 1 0.766375 0.540262 0.5
330 1 0.920774 0.581576 0.5
211 1 0.725657 0.511822 0.5
70 1 0.535212 0.960835 0.5
264 1 0.596684 0.628659 0.5
252 1 0.651103 0.618711 0.5
244 1 0.698327 0.615729 0.5
232 1 0.832866 0.621825 0.5
218 1 0.821589 0.670138 0.5
168 1 0.87799 0.600708 0.5
150 1 0.509957 0.738496 0.5
65 1 0.520493 0.680403 0.5
399 1 0.680101 0.664269 0.5
81 1 0.73441 0.645686 0.5
288 1 0.78612 0.63419 0.5
262 1 0.871147 0.64684 0.5
277 1 0.918648 0.630347 0.5
210 1 0.630922 0.668491 0.5
240 1 0.719314 0.69872 0.5
257 1 0.767483 0.685212 0.5
182 1 0.857461 0.709617 0.5
145 1 0.903958 0.69169 0.5
128 1 0.822871 0.513387 0.5
203 1 0.563701 0.73346 0.5
74 1 0.571299 0.682673 0.5
357 1 0.612533 0.717484 0.5
84 1 0.660229 0.710224 0.5
13 1 0.752887 0.73253 0.5
61 1 0.790567 0.765589 0.5
205 1 0.809218 0.720267 0.5
254 1 0.939822 0.736633 0.5
300 1 0.875049 0.994732 0.5
279 1 0.596984 0.769611 0.5
198 1 0.651566 0.762766 0.5
351 1 0.839311 0.759221 0.5
194 1 0.890313 0.752664 0.5
255 1 0.982888 0.574326 0.5
294 1 0.545315 0.778859 0.5
66 1 0.641954 0.812923 0.5
266 1 0.69927 0.750351 0.5
127 1 0.737122 0.77809 0.5
53 1 0.870623 0.798823 0.5
116 1 0.927375 0.786099 0.5
358 1 0.53312 0.829557 0.5
332 1 0.584163 0.817346 0.5
147 1 0.692892 0.798349 0.5
190 1 0.779591 0.82156 0.5
98 1 0.824042 0.808609 0.5
152 1 0.919676 0.833352 0.5
284 1 0.968947 0.827291 0.5
260 1 0.677034 0.518052 0.5
181 1 0.577392 0.862874 0.5
310 1 0.634198 0.860371 0.5
124 1 0.681459 0.84449 0.5
131 1 0.729069 0.832539 0.5
204 1 0.816304 0.864972 0.5
59 1 0.868537 0.848541 0.5
191 1 0.952962 0.873403 0.5
305 1 0.972507 0.975359 0.5
87 1 0.513766 0.88188 0.5
276 1 0.613195 0.904197 0.5
57 1 0.710332 0.887365 0.5
167 1 0.766693 0.871877 0.5
45 1 0.847253 0.899432 0.5
51 1 0.908716 0.889313 0.5
259 1 0.554695 0.907277 0.5
50 1 0.661344 0.899368 0.5
286 1 0.74867 0.921758 0.5
12 1 0.797082 0.909855 0.5
35 1 0.884455 0.934699 0.5
26 1 0.93015 0.94187 0.5
378 1 0.980993 0.926367 0.5
130 1 0.584791 0.948996 0.5
297 1 0.641767 0.942642 0.5
185 1 0.699769 0.936737 0.5
110 1 0.789155 0.962442 0.5
238 1 0.839755 0.950104 0.5
309 1 0.823993 0.997852 0.5
384 1 0.926575 0.992264 0.5
55 1 0.524278 0.550239 0.5
54 1 0.98156 0.778131 0.5
68 1 0.577273 0.997485 0.5
295 1 0.514417 0.598542 0.5
193 1 0.996138 0.704535 0.5
