ITEM: TIMESTEP
100000
ITEM: NUMBER OF ATOMS
400
ITEM: BOX BOUNDS pp pp pp
0.0000000000000000e+00 2.5819888974716111e+01
0.0000000000000000e+00 2.5819888974716111e+01
-6.4549722436790280e-01 6.4549722436790280e-01
ITEM: ATOMS id type xs ys zs
297 1 0.112061 0.0735424 0.5
81 1 0.158449 0.419813 0.5
250 1 0.0625181 0.235676 0.5
332 1 0.294024 0.400252 0.5
353 1 0.0999659 0.496476 0.5
306 1 0.335552 0.0387106 0.5
153 1 0.170063 0.127443 0.5
75 1 0.0894318 0.107288 0.5
251 1 0.290933 0.193955 0.5
113 1 0.496186 0.471516 0.5
1 1 0.399823 0.160853 0.5
177 1 0.30518 0.00993037 0.5
7 1 0.18964 0.168819 0.5
211 1 0.444685 0.468053 0.5
175 1 0.349147 0.460563 0.5
375 1 0.146885 0.156438 0.5
270 1 0.120382 0.385034 0.5
294 1 0.346666 0.0848354 0.5
43 1 0.281144 0.151377 0.5
34 1 0.0787433 0.195303 0.5
155 1 0.247312 0.120646 0.5
102 1 0.49458 0.0343369 0.5
108 1 0.283934 0.0941808 0.5
125 1 0.288636 0.441401 0.5
310 1 0.0361519 0.17832 0.5
314 1 0.212867 0.261641 0.5
354 1 0.229344 0.162653 0.5
29 1 0.296351 0.0554515 0.5
296 1 0.363036 0.149343 0.5
293 1 0.422792 0.0885775 0.5
14 1 0.38512 0.0778637 0.5
391 1 0.0906035 0.0278 0.5
86 1 0.12346 0.222931 0.5
69 1 0.145623 0.193955 0.5
55 1 0.44356 0.126072 0.5
93 1 0.129787 0.303717 0.5
105 1 0.351831 0.325956 0.5
334 1 0.305374 0.232237 0.5
64 1 0.217113 0.0681531 0.5
205 1 0.370304 0.188901 0.5
172 1 0.408765 0.255813 0.5
123 1 0.373366 0.285387 0.5
232 1 0.247761 0.206688 0.5
19 1 0.330104 0.170506 0.5
379 1 0.203335 0.0242231 0.5
141 1 0.180306 0.0849577 0.5
97 1 0.28766 0.295749 0.5
23 1 0.210464 0.106972 0.5
135 1 0.290642 0.356991 0.5
308 1 0.0230944 0.288538 0.5
137 1 0.119688 0.343861 0.5
147 1 0.204584 0.341983 0.5
318 1 0.157142 0.358883 0.5
87 1 0.327058 0.381243 0.5
190 1 0.480977 0.137235 0.5
16 1 0.138001 0.468548 0.5
92 1 0.107174 0.270327 0.5
317 1 0.0635265 0.293306 0.5
203 1 0.199175 0.436012 0.5
263 1 0.311507 0.124104 0.5
80 1 0.374876 0.228062 0.5
261 1 0.207292 0.204877 0.5
139 1 0.173693 0.27753 0.5
224 1 0.251997 0.362357 0.5
262 1 0.177887 0.241455 0.5
118 1 0.106747 0.429316 0.5
20 1 0.0730166 0.371028 0.5
225 1 0.412407 0.296644 0.5
300 1 0.25043 0.264879 0.5
362 1 0.0703715 0.472278 0.5
114 1 0.204078 0.39187 0.5
330 1 0.245135 0.314318 0.5
167 1 0.364022 0.398014 0.5
207 1 0.235626 0.445939 0.5
31 1 0.406007 0.20259 0.5
370 1 0.134643 0.112425 0.5
85 1 0.455517 0.0651668 0.5
229 1 0.377029 0.115023 0.5
131 1 0.0391213 0.397099 0.5
361 1 0.426695 0.415816 0.5
99 1 0.25843 0.0265634 0.5
66 1 0.413667 0.022424 0.5
290 1 0.192048 0.48425 0.5
235 1 0.444465 0.168794 0.5
325 1 0.475934 0.418108 0.5
30 1 0.0281711 0.329372 0.5
157 1 0.162449 0.0497991 0.5
171 1 0.478123 0.100421 0.5
170 1 0.00882319 0.365188 0.5
265 1 0.08305 0.327819 0.5
133 1 0.00214552 0.216499 0.5
329 1 0.337009 0.26827 0.5
268 1 0.483208 0.378721 0.5
234 1 0.417539 0.35025 0.5
252 1 0.463549 0.342232 0.5
18 1 0.0516813 0.0954489 0.5
186 1 0.378579 0.0395516 0.5
154 1 0.0443004 0.0486805 0.5
247 1 0.329261 0.422065 0.5
327 1 0.053576 0.146052 0.5
221 1 0.498275 0.262519 0.5
394 1 0.269701 0.486778 0.5
373 1 0.0205935 0.443602 0.5
338 1 0.00258325 0.139382 0.5
217 1 0.143551 0.0169793 0.5
216 1 0.460304 0.250037 0.5
307 1 0.322061 0.489425 0.5
395 1 0.167786 0.978752 0.5
255 1 0.427681 0.649278 0.5
365 1 0.476676 0.725847 0.5
158 1 0.161586 0.58641 0.5
303 1 0.0920722 0.933421 0.5
242 1 0.207227 0.530561 0.5
316 1 0.271548 0.980925 0.5
60 1 0.0695373 0.614388 0.5
110 1 0.20411 0.67969 0.5
169 1 0.136655 0.507566 0.5
351 1 0.415185 0.689852 0.5
96 1 0.486324 0.769548 0.5
248 1 0.011832 0.864468 0.5
146 1 0.199987 0.578429 0.5
383 1 0.433482 0.837627 0.5
249 1 0.0595528 0.983333 0.5
309 1 0.409233 0.509637 0.5
162 1 0.457581 0.505884 0.5
377 1 0.461468 0.628192 0.5
132 1 0.0153939 0.534089 0.5
199 1 0.168578 0.626718 0.5
67 1 0.126319 0.675691 0.5
214 1 0.338267 0.900018 0.5
107 1 0.326225 0.744143 0.5
321 1 0.270279 0.729067 0.5
285 1 0.440536 0.551822 0.5
76 1 0.489771 0.691132 0.5
322 1 0.45436 0.679632 0.5
271 1 0.484317 0.549969 0.5
115 1 0.348109 0.641812 0.5
388 1 0.139858 0.919366 0.5
276 1 0.253939 0.542913 0.5
127 1 0.305443 0.604451 0.5
233 1 0.0404466 0.666536 0.5
358 1 0.3029 0.917779 0.5
183 1 0.228611 0.602587 0.5
215 1 0.0405963 0.807338 0.5
59 1 0.323748 0.669555 0.5
82 1 0.0315813 0.948946 0.5
47 1 0.415304 0.961821 0.5
350 1 0.369905 0.556322 0.5
246 1 0.411562 0.583699 0.5
49 1 0.276788 0.693171 0.5
152 1 0.354347 0.507381 0.5
130 1 0.356506 0.705282 0.5
83 1 0.0862436 0.745972 0.5
4 1 0.360519 0.600657 0.5
36 1 0.264628 0.905582 0.5
283 1 0.168161 0.702366 0.5
244 1 0.240894 0.86709 0.5
120 1 0.288597 0.522874 0.5
51 1 0.29628 0.854903 0.5
238 1 0.389436 0.809596 0.5
195 1 0.0648675 0.544589 0.5
323 1 0.399826 0.623841 0.5
292 1 0.0477773 0.749972 0.5
187 1 0.111274 0.773876 0.5
369 1 0.218201 0.833259 0.5
112 1 0.398761 0.750744 0.5
398 1 0.11124 0.582426 0.5
356 1 0.253088 0.650259 0.5
46 1 0.310958 0.558991 0.5
357 1 0.150994 0.743601 0.5
57 1 0.227379 0.914432 0.5
236 1 0.369931 0.974713 0.5
360 1 0.113069 0.980435 0.5
192 1 0.188257 0.796277 0.5
58 1 0.261044 0.783442 0.5
54 1 0.308307 0.782533 0.5
53 1 0.460605 0.801441 0.5
335 1 0.276901 0.945391 0.5
189 1 0.0093679 0.740103 0.5
142 1 0.153533 0.81915 0.5
384 1 0.349058 0.775615 0.5
74 1 0.178972 0.847044 0.5
191 1 0.383887 0.909629 0.5
22 1 0.344362 0.856721 0.5
52 1 0.270833 0.585963 0.5
197 1 0.105021 0.839571 0.5
397 1 0.317196 0.818299 0.5
77 1 0.0394035 0.905439 0.5
237 1 0.391391 0.860912 0.5
45 1 0.0936522 0.697105 0.5
256 1 0.189782 0.927899 0.5
223 1 0.0794155 0.805798 0.5
273 1 0.144347 0.870887 0.5
156 1 0.441517 0.76407 0.5
382 1 0.00869449 0.600879 0.5
301 1 0.484256 0.912566 0.5
101 1 0.000983981 0.81697 0.5
313 1 0.235982 0.502332 0.5
240 1 0.454973 0.995533 0.5
180 1 0.0183804 0.999527 0.5
12 1 0.0455792 0.502864 0.5
70 1 0.615555 0.0727251 0.5
241 1 0.834615 0.489579 0.5
371 1 0.581486 0.0920808 0.5
278 1 0.906762 0.0907914 0.5
42 1 0.622004 0.292611 0.5
355 1 0.536655 0.0737718 0.5
315 1 0.971399 0.321774 0.5
121 1 0.845269 0.0396411 0.5
106 1 0.694651 0.425688 0.5
27 1 0.682949 0.0540602 0.5
201 1 0.503363 0.173154 0.5
143 1 0.580492 0.130392 0.5
103 1 0.544506 0.0241215 0.5
160 1 0.768002 0.0885085 0.5
174 1 0.722818 0.0250386 0.5
222 1 0.535804 0.324807 0.5
78 1 0.666264 0.459854 0.5
339 1 0.770911 0.213831 0.5
48 1 0.863413 0.111359 0.5
166 1 0.884901 0.0585705 0.5
168 1 0.949217 0.140008 0.5
117 1 0.978837 0.0561719 0.5
277 1 0.897477 0.485372 0.5
62 1 0.787329 0.147753 0.5
176 1 0.848963 0.186474 0.5
295 1 0.832683 0.243606 0.5
385 1 0.899046 0.138556 0.5
184 1 0.729166 0.0670328 0.5
253 1 0.603939 0.482758 0.5
386 1 0.787823 0.254492 0.5
89 1 0.711713 0.328986 0.5
312 1 0.995835 0.474515 0.5
116 1 0.83964 0.353388 0.5
390 1 0.960261 0.09673 0.5
336 1 0.910995 0.254063 0.5
151 1 0.968556 0.1823 0.5
257 1 0.590712 0.192233 0.5
149 1 0.645032 0.196364 0.5
266 1 0.944423 0.414109 0.5
291 1 0.920877 0.0316603 0.5
28 1 0.739765 0.150204 0.5
200 1 0.888991 0.189741 0.5
79 1 0.80347 0.191964 0.5
231 1 0.872372 0.308767 0.5
320 1 0.603157 0.0126997 0.5
368 1 0.775696 0.343958 0.5
208 1 0.871871 0.228626 0.5
258 1 0.91765 0.302214 0.5
44 1 0.957715 0.228097 0.5
228 1 0.594591 0.228471 0.5
282 1 0.669428 0.313207 0.5
111 1 0.794376 0.291072 0.5
304 1 0.667998 0.156011 0.5
41 1 0.798606 0.463203 0.5
6 1 0.685686 0.273126 0.5
182 1 0.537111 0.474802 0.5
366 1 0.53423 0.202481 0.5
144 1 0.882035 0.355284 0.5
202 1 0.60274 0.438481 0.5
88 1 0.652455 0.032887 0.5
367 1 0.962301 0.459294 0.5
393 1 0.695505 0.237045 0.5
226 1 0.579979 0.274783 0.5
319 1 0.558565 0.242733 0.5
179 1 0.794882 0.375724 0.5
61 1 0.848643 0.427891 0.5
359 1 0.777764 0.00674432 0.5
302 1 0.509082 0.300385 0.5
173 1 0.842426 0.38952 0.5
299 1 0.94995 0.285252 0.5
72 1 0.531241 0.119143 0.5
286 1 0.657947 0.0901179 0.5
346 1 0.620505 0.160202 0.5
138 1 0.919689 0.443965 0.5
326 1 0.607981 0.364983 0.5
259 1 0.550741 0.170026 0.5
272 1 0.764644 0.484074 0.5
333 1 0.652545 0.245343 0.5
227 1 0.757315 0.379026 0.5
109 1 0.97155 0.0144535 0.5
352 1 0.959882 0.368839 0.5
194 1 0.626863 0.331987 0.5
340 1 0.800954 0.065945 0.5
13 1 0.564634 0.360657 0.5
245 1 0.71575 0.381657 0.5
288 1 0.924415 0.204087 0.5
98 1 0.69358 0.120562 0.5
165 1 0.648922 0.37333 0.5
196 1 0.887695 0.402511 0.5
220 1 0.715404 0.192487 0.5
400 1 0.982428 0.257804 0.5
342 1 0.815869 0.115421 0.5
2 1 0.712608 0.4773 0.5
376 1 0.635253 0.409938 0.5
260 1 0.816287 0.00692558 0.5
349 1 0.526668 0.414108 0.5
159 1 0.934612 0.498089 0.5
289 1 0.647043 0.495955 0.5
38 1 0.997541 0.10249 0.5
269 1 0.930496 0.759739 0.5
347 1 0.521771 0.644712 0.5
17 1 0.977967 0.921392 0.5
380 1 0.549986 0.546685 0.5
26 1 0.634597 0.934829 0.5
35 1 0.725991 0.689235 0.5
178 1 0.636251 0.742257 0.5
372 1 0.860835 0.770129 0.5
331 1 0.821798 0.611088 0.5
284 1 0.63012 0.840161 0.5
193 1 0.978976 0.570532 0.5
10 1 0.553244 0.830546 0.5
37 1 0.746578 0.516799 0.5
230 1 0.541912 0.917242 0.5
73 1 0.924626 0.557663 0.5
267 1 0.888102 0.742199 0.5
181 1 0.536816 0.589677 0.5
219 1 0.75677 0.640824 0.5
275 1 0.904519 0.701731 0.5
150 1 0.776103 0.745319 0.5
243 1 0.783855 0.615995 0.5
298 1 0.935625 0.985331 0.5
280 1 0.734622 0.892345 0.5
392 1 0.984944 0.96994 0.5
311 1 0.515938 0.820954 0.5
328 1 0.774885 0.673416 0.5
185 1 0.826203 0.663509 0.5
344 1 0.601762 0.526209 0.5
324 1 0.698101 0.736643 0.5
11 1 0.712232 0.564062 0.5
188 1 0.645624 0.982898 0.5
279 1 0.735862 0.726116 0.5
94 1 0.836445 0.576811 0.5
119 1 0.620027 0.688576 0.5
341 1 0.992202 0.702272 0.5
381 1 0.801938 0.713771 0.5
210 1 0.931609 0.671792 0.5
374 1 0.680558 0.947457 0.5
63 1 0.663559 0.644516 0.5
399 1 0.850009 0.6954 0.5
71 1 0.866428 0.619016 0.5
206 1 0.573002 0.678419 0.5
164 1 0.568788 0.615492 0.5
32 1 0.70626 0.83211 0.5
218 1 0.700446 0.661598 0.5
305 1 0.773385 0.901151 0.5
21 1 0.500068 0.611599 0.5
209 1 0.82112 0.766443 0.5
8 1 0.509486 0.968409 0.5
364 1 0.839216 0.852931 0.5
198 1 0.608347 0.649957 0.5
122 1 0.941523 0.8235 0.5
124 1 0.934205 0.939217 0.5
90 1 0.560482 0.721239 0.5
56 1 0.598306 0.76089 0.5
129 1 0.884634 0.672424 0.5
15 1 0.68666 0.904712 0.5
50 1 0.657851 0.696773 0.5
264 1 0.793023 0.834626 0.5
148 1 0.734743 0.804006 0.5
24 1 0.558083 0.975101 0.5
387 1 0.80179 0.931542 0.5
348 1 0.843122 0.733778 0.5
25 1 0.978856 0.512639 0.5
68 1 0.708352 0.525239 0.5
126 1 0.603764 0.869577 0.5
65 1 0.560116 0.87188 0.5
213 1 0.762503 0.946926 0.5
100 1 0.962906 0.791949 0.5
128 1 0.636484 0.88689 0.5
134 1 0.666568 0.811046 0.5
136 1 0.937726 0.606892 0.5
91 1 0.872116 0.885202 0.5
343 1 0.525907 0.768045 0.5
281 1 0.517852 0.721599 0.5
145 1 0.796386 0.796633 0.5
345 1 0.595546 0.965464 0.5
140 1 0.555754 0.792231 0.5
40 1 0.963021 0.869443 0.5
9 1 0.601208 0.565821 0.5
104 1 0.724615 0.973852 0.5
95 1 0.876133 0.544742 0.5
389 1 0.842057 0.947995 0.5
396 1 0.908597 0.866742 0.5
254 1 0.611211 0.611482 0.5
204 1 0.686433 0.865549 0.5
161 1 0.66929 0.536114 0.5
163 1 0.863431 0.985062 0.5
33 1 0.898316 0.804899 0.5
378 1 0.802869 0.971075 0.5
5 1 0.686109 0.9868 0.5
363 1 0.823356 0.888848 0.5
84 1 0.880884 0.938407 0.5
39 1 0.592482 0.810684 0.5
287 1 0.987667 0.651671 0.5
337 1 0.523638 0.520436 0.5
212 1 0.784327 0.570419 0.5
3 1 0.801213 0.512917 0.5
274 1 0.966076 0.750531 0.5
239 1 0.94356 0.717124 0.5
