ITEM: TIMESTEP
100000
ITEM: NUMBER OF ATOMS
400
ITEM: BOX BOUNDS pp pp pp
0.0000000000000000e+00 2.1081851067789195e+01
0.0000000000000000e+00 2.1081851067789195e+01
-5.2704627669472992e-01 5.2704627669472992e-01
ITEM: ATOMS id type xs ys zs
353 1 0.147279 0.400026 0.5
5 1 0.0599311 0.112639 0.5
290 1 0.481601 0.355975 0.5
163 1 0.40846 0.488212 0.5
329 1 0.0105582 0.364036 0.5
173 1 0.0772469 0.441634 0.5
25 1 0.193218 0.363208 0.5
239 1 0.0990695 0.393643 0.5
358 1 0.00818576 0.0830939 0.5
14 1 0.047955 0.156132 0.5
238 1 0.0547028 0.199921 0.5
345 1 0.0827538 0.49541 0.5
251 1 0.276765 0.0933016 0.5
159 1 0.0407936 0.475645 0.5
10 1 0.343062 0.0202607 0.5
294 1 0.243917 0.0496593 0.5
199 1 0.285841 0.0393129 0.5
170 1 0.301205 0.433469 0.5
223 1 0.005953 0.278777 0.5
85 1 0.169638 0.125449 0.5
295 1 0.123378 0.132208 0.5
387 1 0.0560374 0.0677507 0.5
378 1 0.0232407 0.0213182 0.5
112 1 0.311039 0.133822 0.5
304 1 0.37461 0.0554711 0.5
253 1 0.0949492 0.17161 0.5
40 1 0.111667 0.0431299 0.5
155 1 0.174368 0.0775406 0.5
178 1 0.450785 0.00263206 0.5
160 1 0.46343 0.0507603 0.5
107 1 0.42039 0.0986399 0.5
109 1 0.314151 0.479995 0.5
165 1 0.0537491 0.273091 0.5
17 1 0.0519772 0.394695 0.5
273 1 0.149252 0.222882 0.5
381 1 0.150453 0.175407 0.5
33 1 0.204597 0.198757 0.5
83 1 0.322706 0.0681412 0.5
389 1 0.361074 0.104445 0.5
153 1 0.464821 0.101704 0.5
377 1 0.483957 0.406148 0.5
390 1 0.43884 0.194284 0.5
48 1 0.0992816 0.221958 0.5
302 1 0.219945 0.268103 0.5
246 1 0.172403 0.26446 0.5
11 1 0.230216 0.094531 0.5
399 1 0.462926 0.458505 0.5
340 1 0.119706 0.265926 0.5
257 1 0.20733 0.153812 0.5
259 1 0.184517 0.0225811 0.5
152 1 0.396108 0.137949 0.5
198 1 0.407312 0.240178 0.5
154 1 0.495262 0.181969 0.5
8 1 0.151171 0.304097 0.5
242 1 0.277182 0.27508 0.5
190 1 0.352936 0.155372 0.5
88 1 0.389119 0.185469 0.5
312 1 0.101399 0.311762 0.5
34 1 0.255579 0.229253 0.5
391 1 0.246436 0.183183 0.5
55 1 0.252727 0.134964 0.5
18 1 0.345254 0.202983 0.5
50 1 0.369138 0.294991 0.5
228 1 0.458249 0.253212 0.5
181 1 0.417768 0.040645 0.5
195 1 0.245045 0.310548 0.5
338 1 0.320873 0.287782 0.5
71 1 0.291041 0.179525 0.5
118 1 0.467548 0.298443 0.5
297 1 0.007009 0.411085 0.5
206 1 0.0365629 0.317589 0.5
133 1 0.0723186 0.353201 0.5
100 1 0.196241 0.41506 0.5
176 1 0.283898 0.337072 0.5
24 1 0.332147 0.394322 0.5
74 1 0.362213 0.246098 0.5
280 1 0.422901 0.288551 0.5
261 1 0.356884 0.443033 0.5
313 1 0.421141 0.334594 0.5
205 1 0.439681 0.384365 0.5
263 1 0.232761 0.389131 0.5
179 1 0.222451 0.451944 0.5
135 1 0.331465 0.33588 0.5
130 1 0.395394 0.38428 0.5
166 1 0.135357 0.35018 0.5
315 1 0.19758 0.310774 0.5
342 1 0.283121 0.381853 0.5
385 1 0.412156 0.435606 0.5
310 1 0.454722 0.151038 0.5
3 1 0.138203 0.488812 0.5
38 1 0.124559 0.439717 0.5
384 1 0.0184597 0.230626 0.5
47 1 0.306488 0.231915 0.5
326 1 0.362917 0.494687 0.5
374 1 0.00326483 0.132249 0.5
42 1 0.262346 0.480968 0.5
142 1 0.169196 0.45368 0.5
334 1 0.00647541 0.184535 0.5
226 1 0.391902 -0.000593227 0.5
375 1 0.0727627 0.00896953 0.5
233 1 0.49897 0.136384 0.5
209 1 0.119968 0.530394 0.5
44 1 0.491919 0.516777 0.5
86 1 0.353618 0.580219 0.5
243 1 0.100067 0.574187 0.5
311 1 0.241397 0.519674 0.5
53 1 0.491218 0.877755 0.5
186 1 0.252246 0.5798 0.5
105 1 0.295866 0.578448 0.5
309 1 0.326542 0.624743 0.5
193 1 0.392221 0.548158 0.5
397 1 0.361003 0.891523 0.5
75 1 0.420921 0.957795 0.5
288 1 0.0492718 0.537814 0.5
370 1 0.226697 0.626966 0.5
169 1 0.192804 0.658449 0.5
150 1 0.372798 0.621394 0.5
158 1 0.0829695 0.627215 0.5
70 1 0.073427 0.696762 0.5
279 1 0.137196 0.615376 0.5
15 1 0.115315 0.668317 0.5
134 1 0.299782 0.659746 0.5
300 1 0.448134 0.634435 0.5
23 1 0.409916 0.592407 0.5
185 1 0.0289627 0.685229 0.5
240 1 0.183871 0.612843 0.5
102 1 0.361884 0.665654 0.5
89 1 0.405862 0.654925 0.5
298 1 0.329293 0.537724 0.5
229 1 0.0390233 0.736331 0.5
57 1 0.182224 0.731179 0.5
284 1 0.157412 0.686603 0.5
141 1 0.221053 0.701179 0.5
120 1 0.258449 0.671752 0.5
274 1 0.455349 0.727601 0.5
111 1 0.493232 0.756639 0.5
372 1 0.138626 0.937086 0.5
250 1 0.221504 0.761613 0.5
175 1 0.314543 0.705109 0.5
77 1 0.416936 0.699602 0.5
188 1 0.412602 0.905208 0.5
202 1 0.446942 0.515803 0.5
67 1 0.301452 0.993282 0.5
276 1 0.272683 0.622019 0.5
349 1 0.318098 0.749634 0.5
247 1 0.365435 0.773273 0.5
308 1 0.363322 0.72152 0.5
49 1 0.0542497 0.585675 0.5
305 1 0.0188975 0.833062 0.5
293 1 0.112619 0.71798 0.5
187 1 0.143979 0.761198 0.5
91 1 0.2637 0.719886 0.5
73 1 0.365595 0.821032 0.5
212 1 0.443032 0.854946 0.5
369 1 0.442251 0.781701 0.5
12 1 0.468379 0.675898 0.5
222 1 0.291192 0.896107 0.5
37 1 0.0965256 0.764046 0.5
171 1 0.415809 0.819025 0.5
41 1 0.206317 0.950314 0.5
68 1 0.147768 0.567 0.5
339 1 0.0666845 0.867971 0.5
344 1 0.00586741 0.773116 0.5
216 1 0.184078 0.787062 0.5
92 1 0.309433 0.798938 0.5
351 1 0.395408 0.858851 0.5
31 1 0.0136906 0.926562 0.5
213 1 0.0509685 0.790985 0.5
327 1 0.112761 0.853599 0.5
255 1 0.27207 0.765376 0.5
145 1 0.331565 0.855362 0.5
278 1 0.285891 0.526194 0.5
157 1 0.0305233 0.973087 0.5
328 1 0.01639 0.879926 0.5
4 1 0.105438 0.905364 0.5
127 1 0.0941205 0.81149 0.5
336 1 0.270847 0.840355 0.5
78 1 0.487456 0.976633 0.5
19 1 0.173785 0.519068 0.5
287 1 0.060545 0.91248 0.5
28 1 0.195594 0.897445 0.5
248 1 0.150371 0.889304 0.5
97 1 0.233746 0.810841 0.5
332 1 0.376557 0.934069 0.5
324 1 0.480273 0.825575 0.5
265 1 0.324243 0.928804 0.5
87 1 0.0858372 0.951618 0.5
79 1 0.190383 0.848982 0.5
252 1 0.143022 0.813022 0.5
323 1 0.449314 0.565296 0.5
337 1 0.201927 0.569422 0.5
21 1 0.247896 0.918478 0.5
394 1 0.0289465 0.631139 0.5
277 1 0.46134 0.910389 0.5
245 1 0.233065 0.872605 0.5
393 1 0.409367 0.74525 0.5
16 1 0.353628 0.975471 0.5
258 1 0.270073 0.962966 0.5
96 1 0.158912 0.979204 0.5
194 1 0.00915897 0.569478 0.5
318 1 0.116265 0.993488 0.5
371 1 0.227268 0.989691 0.5
291 1 0.497846 0.566534 0.5
22 1 0.495608 0.62928 0.5
319 1 0.927673 0.342789 0.5
227 1 0.968217 0.251163 0.5
224 1 0.503946 0.0801991 0.5
350 1 0.603921 0.046355 0.5
266 1 0.626264 0.472831 0.5
115 1 0.680558 0.470497 0.5
60 1 0.753442 0.0253783 0.5
201 1 0.677292 0.105184 0.5
192 1 0.645609 0.0738838 0.5
162 1 0.670881 0.0330367 0.5
103 1 0.731084 0.216318 0.5
101 1 0.763241 0.163498 0.5
13 1 0.832357 0.120882 0.5
114 1 0.964074 0.0879815 0.5
219 1 0.825691 0.0680473 0.5
117 1 0.585124 0.0899249 0.5
348 1 0.7405 0.122061 0.5
189 1 0.704515 0.162525 0.5
146 1 0.877816 0.134883 0.5
132 1 0.959221 0.165413 0.5
373 1 0.786471 0.12317 0.5
289 1 0.733804 0.0709855 0.5
357 1 0.653481 0.14822 0.5
230 1 0.858689 0.186504 0.5
46 1 0.8093 0.16413 0.5
388 1 0.935024 0.125742 0.5
314 1 0.577687 0.138176 0.5
331 1 0.581358 0.186841 0.5
254 1 0.681132 0.202259 0.5
366 1 0.704573 0.254438 0.5
20 1 0.840242 0.229764 0.5
200 1 0.8797 0.267891 0.5
267 1 0.883222 0.0205401 0.5
220 1 0.536253 0.161253 0.5
168 1 0.624214 0.114248 0.5
9 1 0.678087 0.293987 0.5
182 1 0.786319 0.202344 0.5
147 1 0.909299 0.168812 0.5
360 1 0.941965 0.208651 0.5
106 1 0.593853 0.235787 0.5
204 1 0.762759 0.253045 0.5
65 1 0.729758 0.304097 0.5
354 1 0.877155 0.425975 0.5
341 1 0.510173 0.317166 0.5
167 1 0.535604 0.205264 0.5
140 1 0.580079 0.2839 0.5
400 1 0.635251 0.206172 0.5
131 1 0.654035 0.339531 0.5
221 1 0.65869 0.245437 0.5
317 1 0.625721 0.29935 0.5
275 1 0.807819 0.285135 0.5
27 1 0.936585 0.29067 0.5
2 1 0.897334 0.223522 0.5
355 1 0.789388 0.500124 0.5
84 1 0.882662 0.3226 0.5
183 1 0.836605 0.400459 0.5
99 1 0.918362 0.0547134 0.5
218 1 0.869765 0.0902147 0.5
180 1 0.550032 0.250072 0.5
123 1 0.713001 0.349921 0.5
207 1 0.751327 0.399358 0.5
104 1 0.829319 0.331132 0.5
45 1 0.976494 0.330063 0.5
61 1 0.556779 0.32747 0.5
66 1 0.527997 0.361922 0.5
174 1 0.601658 0.345361 0.5
26 1 0.767506 0.451191 0.5
396 1 0.856591 0.469283 0.5
164 1 0.876641 0.367397 0.5
69 1 0.914236 0.398202 0.5
379 1 0.540416 0.107982 0.5
59 1 0.781417 0.322626 0.5
128 1 0.798687 0.370124 0.5
90 1 0.813999 0.448302 0.5
244 1 0.957113 0.377492 0.5
301 1 0.504224 0.0317388 0.5
386 1 0.92815 0.0112341 0.5
272 1 0.58035 0.38431 0.5
110 1 0.654941 0.423063 0.5
82 1 0.631021 0.380631 0.5
196 1 0.953266 0.425371 0.5
346 1 0.708729 0.430939 0.5
382 1 0.537605 0.408836 0.5
7 1 0.56637 0.44741 0.5
380 1 0.608714 0.426328 0.5
364 1 0.978264 0.0337289 0.5
398 1 0.688798 0.389371 0.5
51 1 0.914449 0.462249 0.5
260 1 0.724451 0.479897 0.5
264 1 0.712017 0.00318296 0.5
32 1 0.986563 0.46089 0.5
36 1 0.508644 0.450564 0.5
143 1 0.780623 0.0695568 0.5
113 1 0.806169 0.0205031 0.5
321 1 0.550672 0.0581145 0.5
362 1 0.577675 0.496933 0.5
211 1 0.531274 0.490158 0.5
122 1 0.571026 0.0134251 0.5
215 1 0.504944 0.261513 0.5
392 1 0.924982 0.900363 0.5
144 1 0.97789 0.988337 0.5
383 1 0.616366 0.520198 0.5
316 1 0.694289 0.603954 0.5
343 1 0.660874 0.513668 0.5
63 1 0.754765 0.977417 0.5
249 1 0.705053 0.64969 0.5
256 1 0.946057 0.646443 0.5
296 1 0.609748 0.660811 0.5
365 1 0.867183 0.581631 0.5
56 1 0.91652 0.610611 0.5
347 1 0.540634 0.592491 0.5
231 1 0.648759 0.57759 0.5
29 1 0.712677 0.526022 0.5
1 1 0.594168 0.968891 0.5
116 1 0.838698 0.671439 0.5
235 1 0.636103 0.939526 0.5
98 1 0.590467 0.561432 0.5
138 1 0.540806 0.541924 0.5
80 1 0.96984 0.818343 0.5
39 1 0.647794 0.630791 0.5
136 1 0.725574 0.569292 0.5
6 1 0.838925 0.623352 0.5
149 1 0.795274 0.639967 0.5
322 1 0.881295 0.642312 0.5
64 1 0.973728 0.601732 0.5
307 1 0.698682 0.695736 0.5
81 1 0.75603 0.534549 0.5
62 1 0.956452 0.760943 0.5
299 1 0.968894 0.873844 0.5
172 1 0.652849 0.686167 0.5
191 1 0.604124 0.610904 0.5
210 1 0.605916 0.712706 0.5
352 1 0.780648 0.595551 0.5
108 1 0.814819 0.563359 0.5
306 1 0.954287 0.557693 0.5
184 1 0.563519 0.692011 0.5
269 1 0.75603 0.671848 0.5
281 1 0.837577 0.727602 0.5
121 1 0.879409 0.710418 0.5
177 1 0.915738 0.679845 0.5
361 1 0.944833 0.715922 0.5
137 1 0.891792 0.505304 0.5
94 1 0.990984 0.525571 0.5
292 1 0.665367 0.730459 0.5
72 1 0.740859 0.617164 0.5
161 1 0.799336 0.696447 0.5
203 1 0.791592 0.791304 0.5
208 1 0.809385 0.836198 0.5
282 1 0.851887 0.77928 0.5
376 1 0.534013 0.737984 0.5
363 1 0.556245 0.637046 0.5
43 1 0.622965 0.771998 0.5
320 1 0.78995 0.74419 0.5
333 1 0.907604 0.755615 0.5
356 1 0.59151 0.926756 0.5
217 1 0.528214 0.783472 0.5
271 1 0.578021 0.757522 0.5
283 1 0.746283 0.724532 0.5
359 1 0.842403 0.925927 0.5
232 1 0.865798 0.881642 0.5
236 1 0.9054 0.853601 0.5
76 1 0.577596 0.816895 0.5
93 1 0.666913 0.788114 0.5
52 1 0.758099 0.823629 0.5
148 1 0.800437 0.88406 0.5
234 1 0.892219 0.932734 0.5
197 1 0.856159 0.830728 0.5
95 1 0.897847 0.80147 0.5
125 1 0.533115 0.830412 0.5
58 1 0.70458 0.752185 0.5
214 1 0.755311 0.872631 0.5
262 1 0.929391 0.965861 0.5
325 1 0.971467 0.942244 0.5
119 1 0.990708 0.717943 0.5
335 1 0.67847 0.910572 0.5
270 1 0.751382 0.770648 0.5
303 1 0.707542 0.868834 0.5
225 1 0.508041 0.928481 0.5
330 1 0.6243 0.821333 0.5
241 1 0.664499 0.838923 0.5
139 1 0.63473 0.891187 0.5
368 1 0.71268 0.800254 0.5
129 1 0.724934 0.923628 0.5
395 1 0.848233 0.987025 0.5
151 1 0.848922 0.535515 0.5
30 1 0.772748 0.927075 0.5
237 1 0.983307 0.671181 0.5
126 1 0.68524 0.954672 0.5
156 1 0.548628 0.89853 0.5
35 1 0.521824 0.671192 0.5
367 1 0.908065 0.551962 0.5
286 1 0.942251 0.507534 0.5
268 1 0.808526 0.957538 0.5
54 1 0.600553 0.860535 0.5
285 1 0.541542 0.966298 0.5
124 1 0.627709 0.999104 0.5
