ITEM: TIMESTEP
100000
ITEM: NUMBER OF ATOMS
400
ITEM: BOX BOUNDS pp pp pp
0.0000000000000000e+00 1.9069251784911849e+01
0.0000000000000000e+00 1.9069251784911849e+01
-4.7673129462279618e-01 4.7673129462279618e-01
ITEM: ATOMS id type xs ys zs
11 1 0.0301875 0.0288594 0.5
192 1 0.0859857 0.035598 0.5
94 1 0.105341 0.484967 0.5
95 1 0.162183 0.495273 0.5
8 1 0.333127 0.0197256 0.5
18 1 0.383357 0.0313374 0.5
302 1 0.466472 0.471058 0.5
12 1 0.136265 0.0371586 0.5
14 1 0.190045 0.0396672 0.5
25 1 0.253253 0.0497583 0.5
28 1 0.303046 0.0608859 0.5
9 1 0.438779 0.0472214 0.5
273 1 0.498063 0.428232 0.5
17 1 0.279774 0.00533072 0.5
33 1 0.0574528 0.0776528 0.5
219 1 0.111217 0.082559 0.5
13 1 0.162797 0.0809456 0.5
23 1 0.212063 0.0873234 0.5
16 1 0.267704 0.0995894 0.5
27 1 0.355402 0.0743995 0.5
19 1 0.407667 0.0952191 0.5
221 1 0.459221 0.0964209 0.5
21 1 0.0261332 0.116912 0.5
230 1 0.0803721 0.122528 0.5
22 1 0.135175 0.125803 0.5
220 1 0.189013 0.13501 0.5
24 1 0.242843 0.145687 0.5
37 1 0.328493 0.117261 0.5
29 1 0.378977 0.136297 0.5
218 1 0.00557883 0.070735 0.5
63 1 0.048175 0.162067 0.5
54 1 0.102838 0.167125 0.5
43 1 0.153255 0.175537 0.5
26 1 0.291149 0.150713 0.5
38 1 0.341523 0.17402 0.5
39 1 0.428849 0.13917 0.5
60 1 0.479776 0.149853 0.5
52 1 0.0142086 0.211717 0.5
35 1 0.209871 0.182264 0.5
36 1 0.262347 0.198806 0.5
49 1 0.388902 0.18886 0.5
70 1 0.444954 0.189116 0.5
119 1 0.412984 0.463335 0.5
64 1 0.0667226 0.210225 0.5
34 1 0.128171 0.221831 0.5
45 1 0.18241 0.224486 0.5
47 1 0.2299 0.237316 0.5
48 1 0.307919 0.2265 0.5
79 1 0.359743 0.231404 0.5
80 1 0.414106 0.23618 0.5
69 1 0.46763 0.24319 0.5
62 1 0.0421838 0.255867 0.5
44 1 0.0966704 0.258393 0.5
55 1 0.15236 0.266173 0.5
58 1 0.2026 0.281521 0.5
59 1 0.274022 0.269984 0.5
78 1 0.327767 0.274893 0.5
89 1 0.378546 0.277449 0.5
100 1 0.433737 0.28283 0.5
200 1 0.475093 0.00587379 0.5
74 1 0.0664429 0.300985 0.5
65 1 0.12016 0.30578 0.5
46 1 0.169457 0.316325 0.5
68 1 0.243334 0.309764 0.5
87 1 0.291832 0.317299 0.5
97 1 0.346742 0.320812 0.5
99 1 0.401717 0.326142 0.5
90 1 0.483251 0.287623 0.5
81 1 0.0361634 0.345732 0.5
73 1 0.0880129 0.347348 0.5
75 1 0.139039 0.354425 0.5
291 1 0.453174 0.331844 0.5
72 1 0.00972932 0.29909 0.5
56 1 0.21128 0.349159 0.5
57 1 0.260582 0.357182 0.5
88 1 0.314528 0.361764 0.5
108 1 0.369185 0.366498 0.5
110 1 0.419616 0.374583 0.5
292 1 0.475539 0.380361 0.5
82 1 0.0608161 0.393837 0.5
84 1 0.111472 0.395606 0.5
76 1 0.164322 0.398263 0.5
66 1 0.218783 0.40614 0.5
67 1 0.27263 0.404468 0.5
117 1 0.337352 0.408526 0.5
109 1 0.385467 0.415906 0.5
301 1 0.443744 0.419113 0.5
92 1 0.0271748 0.435071 0.5
83 1 0.0855266 0.438886 0.5
85 1 0.135731 0.444855 0.5
86 1 0.189005 0.450181 0.5
77 1 0.247218 0.450621 0.5
98 1 0.299522 0.451922 0.5
118 1 0.353816 0.457361 0.5
6 1 0.229802 0.00656604 0.5
93 1 0.0518521 0.479627 0.5
91 1 0.00325001 0.389186 0.5
101 1 0.000653082 0.478204 0.5
30 1 0.490133 0.057614 0.5
106 1 0.270758 0.498202 0.5
96 1 0.217267 0.494223 0.5
40 1 0.498137 0.201624 0.5
102 1 0.026889 0.523673 0.5
103 1 0.0762021 0.530271 0.5
105 1 0.127419 0.536763 0.5
7 1 0.313602 0.972594 0.5
129 1 0.382058 0.501492 0.5
120 1 0.430567 0.52258 0.5
311 1 0.482964 0.525806 0.5
115 1 0.178646 0.544229 0.5
116 1 0.229027 0.542365 0.5
127 1 0.29507 0.550302 0.5
128 1 0.349036 0.559175 0.5
130 1 0.39765 0.560512 0.5
112 1 0.0440667 0.569894 0.5
104 1 0.0954631 0.578486 0.5
114 1 0.148202 0.583816 0.5
126 1 0.203514 0.587121 0.5
137 1 0.264928 0.593296 0.5
125 1 0.322654 0.602834 0.5
139 1 0.373724 0.608136 0.5
321 1 0.447844 0.57146 0.5
198 1 0.369179 0.981251 0.5
4 1 0.113505 0.991007 0.5
113 1 0.0635338 0.618561 0.5
124 1 0.113481 0.625573 0.5
135 1 0.172237 0.632522 0.5
136 1 0.227389 0.632812 0.5
145 1 0.281215 0.640556 0.5
138 1 0.333329 0.651537 0.5
140 1 0.425262 0.615344 0.5
331 1 0.475282 0.620456 0.5
122 1 0.0302443 0.659464 0.5
123 1 0.0835559 0.66608 0.5
134 1 0.139376 0.669376 0.5
150 1 0.385831 0.65841 0.5
341 1 0.443123 0.661095 0.5
332 1 0.49332 0.665405 0.5
199 1 0.422927 0.995899 0.5
152 1 0.0576687 0.712068 0.5
144 1 0.201724 0.678987 0.5
155 1 0.25035 0.689369 0.5
146 1 0.308551 0.694205 0.5
148 1 0.360785 0.704742 0.5
149 1 0.413028 0.70395 0.5
160 1 0.464374 0.709981 0.5
143 1 0.11158 0.710245 0.5
153 1 0.164629 0.715576 0.5
164 1 0.215173 0.729166 0.5
157 1 0.270674 0.736267 0.5
147 1 0.324848 0.743228 0.5
158 1 0.378958 0.755849 0.5
159 1 0.429299 0.750701 0.5
133 1 0.0223839 0.748764 0.5
142 1 0.0808661 0.755842 0.5
172 1 0.131905 0.762301 0.5
154 1 0.184462 0.76724 0.5
156 1 0.239635 0.777877 0.5
166 1 0.291023 0.78479 0.5
170 1 0.482152 0.758795 0.5
162 1 0.0413782 0.798323 0.5
182 1 0.0916746 0.807372 0.5
163 1 0.149522 0.80965 0.5
165 1 0.200139 0.814734 0.5
167 1 0.343417 0.793253 0.5
168 1 0.400401 0.802875 0.5
180 1 0.451884 0.800459 0.5
161 1 0.00382845 0.83895 0.5
171 1 0.0585382 0.850821 0.5
173 1 0.113012 0.853279 0.5
184 1 0.170924 0.856685 0.5
176 1 0.250918 0.827346 0.5
187 1 0.304357 0.834211 0.5
177 1 0.365141 0.838042 0.5
169 1 0.413185 0.852291 0.5
371 1 0.461427 0.856453 0.5
175 1 0.219182 0.867364 0.5
186 1 0.268302 0.875663 0.5
188 1 0.321935 0.887462 0.5
178 1 0.382136 0.889245 0.5
179 1 0.436219 0.897467 0.5
380 1 0.027076 0.89095 0.5
181 1 0.0798759 0.896186 0.5
174 1 0.135979 0.897792 0.5
194 1 0.185424 0.908927 0.5
185 1 0.236348 0.916468 0.5
196 1 0.291508 0.927849 0.5
197 1 0.344793 0.933829 0.5
381 1 0.490116 0.908041 0.5
2 1 0.0435383 0.936679 0.5
183 1 0.0989538 0.943269 0.5
193 1 0.149059 0.949161 0.5
5 1 0.201347 0.959552 0.5
189 1 0.404271 0.937402 0.5
190 1 0.451992 0.957331 0.5
1 1 0.0103844 0.983159 0.5
3 1 0.0630998 0.983854 0.5
132 1 0.0119057 0.611239 0.5
195 1 0.25399 0.963057 0.5
151 1 0.00268844 0.701173 0.5
107 1 0.326303 0.508849 0.5
15 1 0.166365 0.997123 0.5
20 1 0.524757 0.015432 0.5
223 1 0.576942 0.0203972 0.5
224 1 0.625145 0.024973 0.5
53 1 0.996012 0.159641 0.5
398 1 0.872157 0.013515 0.5
281 1 0.513054 0.339648 0.5
209 1 0.925177 0.018087 0.5
210 1 0.978087 0.02366 0.5
222 1 0.545243 0.0644011 0.5
231 1 0.606203 0.0725219 0.5
242 1 0.67787 0.0388009 0.5
204 1 0.739524 0.0452924 0.5
206 1 0.791383 0.0550355 0.5
216 1 0.844184 0.0556346 0.5
240 1 0.894603 0.060284 0.5
249 1 0.949487 0.0644552 0.5
243 1 0.656478 0.0847918 0.5
225 1 0.70895 0.0866072 0.5
205 1 0.758369 0.0989374 0.5
227 1 0.810551 0.101974 0.5
283 1 0.565634 0.488655 0.5
241 1 0.566762 0.109503 0.5
254 1 0.620135 0.123927 0.5
234 1 0.67968 0.131605 0.5
215 1 0.730504 0.147746 0.5
207 1 0.861785 0.106781 0.5
208 1 0.919926 0.110434 0.5
229 1 0.974248 0.11474 0.5
251 1 0.534542 0.158223 0.5
232 1 0.583903 0.167272 0.5
253 1 0.63645 0.175743 0.5
226 1 0.785125 0.148456 0.5
217 1 0.835244 0.154212 0.5
31 1 0.889801 0.151466 0.5
32 1 0.944678 0.155929 0.5
252 1 0.553118 0.205414 0.5
261 1 0.609337 0.221549 0.5
235 1 0.691825 0.184571 0.5
233 1 0.754646 0.191379 0.5
239 1 0.805804 0.196525 0.5
51 1 0.855308 0.199117 0.5
260 1 0.909152 0.200063 0.5
42 1 0.962409 0.205607 0.5
244 1 0.657575 0.221744 0.5
246 1 0.713784 0.231389 0.5
237 1 0.776053 0.236377 0.5
228 1 0.827836 0.243874 0.5
250 1 0.882492 0.245494 0.5
270 1 0.933124 0.248564 0.5
271 1 0.523487 0.246532 0.5
262 1 0.57371 0.259512 0.5
245 1 0.628471 0.26947 0.5
247 1 0.683625 0.270625 0.5
248 1 0.736868 0.279449 0.5
41 1 0.790514 0.283328 0.5
61 1 0.986296 0.255424 0.5
272 1 0.537764 0.295499 0.5
255 1 0.597044 0.30897 0.5
256 1 0.648662 0.318104 0.5
236 1 0.707942 0.31898 0.5
238 1 0.852593 0.290488 0.5
259 1 0.909714 0.292971 0.5
71 1 0.960251 0.299101 0.5
309 1 0.94552 0.47034 0.5
264 1 0.564797 0.346607 0.5
258 1 0.761479 0.331307 0.5
279 1 0.814088 0.330981 0.5
269 1 0.868232 0.341415 0.5
280 1 0.922533 0.345215 0.5
290 1 0.984007 0.344322 0.5
263 1 0.526007 0.38608 0.5
265 1 0.617596 0.360473 0.5
268 1 0.669604 0.365306 0.5
267 1 0.72404 0.371891 0.5
278 1 0.784806 0.380161 0.5
298 1 0.836047 0.388606 0.5
288 1 0.888501 0.388758 0.5
289 1 0.948933 0.385307 0.5
275 1 0.579915 0.398239 0.5
257 1 0.633899 0.408028 0.5
277 1 0.694737 0.410604 0.5
287 1 0.746149 0.415351 0.5
297 1 0.805992 0.429105 0.5
299 1 0.918626 0.428963 0.5
274 1 0.546946 0.433409 0.5
276 1 0.597356 0.450061 0.5
266 1 0.655889 0.453097 0.5
306 1 0.760188 0.461289 0.5
307 1 0.855518 0.435942 0.5
308 1 0.890877 0.473289 0.5
300 1 0.977676 0.432917 0.5
282 1 0.518874 0.477821 0.5
316 1 0.808236 0.479793 0.5
50 1 0.51321 0.102941 0.5
286 1 0.704982 0.46278 0.5
284 1 0.618941 0.498372 0.5
395 1 0.770292 0.00172308 0.5
397 1 0.81992 0.0126102 0.5
293 1 0.535645 0.530098 0.5
317 1 0.854674 0.506253 0.5
296 1 0.719169 0.515433 0.5
326 1 0.768696 0.512074 0.5
318 1 0.918342 0.51471 0.5
361 1 0.499413 0.813134 0.5
310 1 0.968518 0.519734 0.5
294 1 0.586686 0.538101 0.5
304 1 0.637961 0.548294 0.5
295 1 0.68642 0.55674 0.5
336 1 0.746317 0.563127 0.5
327 1 0.819363 0.541448 0.5
329 1 0.883405 0.55662 0.5
319 1 0.937797 0.562997 0.5
285 1 0.669387 0.504545 0.5
303 1 0.551617 0.578748 0.5
313 1 0.605831 0.585377 0.5
314 1 0.658109 0.606996 0.5
337 1 0.794879 0.586934 0.5
328 1 0.844311 0.587316 0.5
330 1 0.90642 0.602121 0.5
322 1 0.52544 0.621902 0.5
323 1 0.579227 0.629908 0.5
325 1 0.625636 0.644228 0.5
305 1 0.714435 0.60412 0.5
315 1 0.761115 0.623653 0.5
339 1 0.819862 0.635868 0.5
320 1 0.959124 0.610269 0.5
342 1 0.548016 0.667092 0.5
335 1 0.676539 0.65791 0.5
347 1 0.738994 0.667343 0.5
346 1 0.792037 0.676794 0.5
340 1 0.87334 0.644555 0.5
131 1 0.925963 0.650573 0.5
121 1 0.978137 0.657218 0.5
333 1 0.592777 0.684357 0.5
324 1 0.646433 0.698064 0.5
345 1 0.704101 0.707357 0.5
338 1 0.844964 0.684756 0.5
349 1 0.895485 0.693792 0.5
350 1 0.945733 0.697363 0.5
351 1 0.518489 0.711532 0.5
343 1 0.566059 0.727933 0.5
334 1 0.614212 0.739934 0.5
355 1 0.756126 0.715758 0.5
348 1 0.808077 0.72673 0.5
358 1 0.857979 0.73549 0.5
359 1 0.907232 0.742291 0.5
352 1 0.530756 0.771205 0.5
362 1 0.580101 0.776607 0.5
344 1 0.670215 0.746887 0.5
354 1 0.719049 0.760281 0.5
365 1 0.773892 0.770086 0.5
356 1 0.824323 0.778249 0.5
357 1 0.875331 0.781038 0.5
360 1 0.963674 0.746997 0.5
400 1 0.960708 0.976372 0.5
372 1 0.551249 0.820938 0.5
353 1 0.63567 0.788555 0.5
363 1 0.687418 0.801271 0.5
364 1 0.739308 0.808171 0.5
369 1 0.929219 0.787105 0.5
141 1 0.988935 0.787175 0.5
382 1 0.513956 0.864474 0.5
373 1 0.601661 0.826087 0.5
393 1 0.65455 0.837514 0.5
374 1 0.707199 0.853429 0.5
367 1 0.786498 0.819623 0.5
377 1 0.84139 0.825503 0.5
368 1 0.895226 0.83072 0.5
370 1 0.950746 0.835038 0.5
383 1 0.570576 0.875938 0.5
392 1 0.619642 0.88021 0.5
375 1 0.759728 0.861694 0.5
366 1 0.811135 0.86925 0.5
378 1 0.865194 0.874909 0.5
379 1 0.918158 0.874415 0.5
390 1 0.97177 0.879237 0.5
391 1 0.541059 0.919249 0.5
201 1 0.590487 0.921551 0.5
203 1 0.672891 0.894885 0.5
384 1 0.726306 0.902487 0.5
376 1 0.777305 0.908574 0.5
387 1 0.828631 0.918739 0.5
388 1 0.881753 0.924144 0.5
386 1 0.847553 0.968106 0.5
202 1 0.640883 0.935132 0.5
394 1 0.692278 0.948486 0.5
385 1 0.746219 0.950762 0.5
389 1 0.931578 0.925853 0.5
214 1 0.717229 0.998828 0.5
211 1 0.556106 0.96659 0.5
212 1 0.609855 0.976288 0.5
213 1 0.659676 0.990345 0.5
399 1 0.898717 0.971971 0.5
396 1 0.797002 0.956861 0.5
191 1 0.98761 0.931618 0.5
10 1 0.503473 0.957513 0.5
111 1 0.991863 0.56265 0.5
312 1 0.501813 0.572028 0.5
