ITEM: TIMESTEP
100000
ITEM: NUMBER OF ATOMS
400
ITEM: BOX BOUNDS pp pp pp
0.0000000000000000e+00 2.3904572186687872e+01
0.0000000000000000e+00 2.3904572186687872e+01
-5.9761430466719678e-01 5.9761430466719678e-01
ITEM: ATOMS id type xs ys zs
133 1 0.433791 0.297198 0.5
277 1 0.209856 0.366045 0.5
375 1 0.194417 0.0441135 0.5
10 1 0.153653 0.0761594 0.5
378 1 0.284958 0.0253994 0.5
64 1 0.0195614 0.397825 0.5
310 1 0.474106 0.291441 0.5
237 1 0.034856 0.0284219 0.5
369 1 0.344457 0.0747569 0.5
370 1 0.3228 0.288766 0.5
98 1 0.10875 0.0942774 0.5
232 1 0.214964 0.154741 0.5
198 1 0.26619 0.0770891 0.5
38 1 0.23598 0.0243025 0.5
81 1 0.47969 0.357793 0.5
368 1 0.0589743 0.423212 0.5
281 1 0.421831 0.0337982 0.5
161 1 0.0889813 0.469998 0.5
120 1 0.33854 0.0287395 0.5
217 1 0.303491 0.182056 0.5
259 1 0.134447 0.213326 0.5
349 1 0.272865 0.141767 0.5
139 1 0.304767 0.0940148 0.5
311 1 0.375632 0.120372 0.5
309 1 0.0467705 0.0744749 0.5
366 1 0.192936 0.097235 0.5
361 1 0.281564 0.229476 0.5
326 1 0.136156 0.489613 0.5
174 1 0.469173 0.39724 0.5
169 1 0.0882446 0.345436 0.5
324 1 0.132857 0.318605 0.5
61 1 0.430238 0.144648 0.5
243 1 0.326071 0.142769 0.5
279 1 0.473511 0.155463 0.5
355 1 0.41899 0.205205 0.5
209 1 0.467188 0.108773 0.5
389 1 0.0973832 0.402962 0.5
35 1 0.0752838 0.185621 0.5
132 1 0.0408127 0.157479 0.5
348 1 0.237988 0.118014 0.5
362 1 0.0579611 0.311001 0.5
94 1 0.184077 0.326408 0.5
382 1 0.464351 0.231686 0.5
314 1 0.29453 0.32069 0.5
113 1 0.226267 0.251546 0.5
70 1 0.3441 0.444959 0.5
271 1 0.191369 0.27279 0.5
244 1 0.215605 0.203082 0.5
211 1 0.146169 0.275754 0.5
114 1 0.346767 0.197121 0.5
225 1 0.26546 0.19128 0.5
248 1 0.403618 0.429156 0.5
336 1 0.0150902 0.194176 0.5
164 1 0.218833 0.413953 0.5
116 1 0.178754 0.393047 0.5
100 1 0.332276 0.244659 0.5
170 1 0.391224 0.172839 0.5
280 1 0.473767 0.460265 0.5
41 1 0.495786 0.0394267 0.5
351 1 0.137382 0.366464 0.5
90 1 0.1206 0.439052 0.5
1 1 0.248937 0.378857 0.5
388 1 0.418448 0.0927822 0.5
262 1 0.229052 0.293297 0.5
206 1 0.350158 0.396618 0.5
102 1 0.249548 0.332864 0.5
79 1 0.417107 0.254506 0.5
131 1 0.385039 0.0493911 0.5
112 1 0.38008 0.368318 0.5
127 1 0.101645 0.289619 0.5
82 1 0.45904 0.0179428 0.5
42 1 0.037815 0.462451 0.5
399 1 0.027132 0.354555 0.5
329 1 0.376251 0.25907 0.5
140 1 0.124852 0.0393208 0.5
66 1 0.120504 0.138825 0.5
226 1 0.297216 0.380513 0.5
195 1 0.44252 0.435099 0.5
173 1 0.0475824 0.216207 0.5
249 1 0.304928 0.435048 0.5
185 1 0.27298 0.273512 0.5
220 1 0.33052 0.342846 0.5
104 1 0.0885152 0.232055 0.5
9 1 0.0131937 0.237946 0.5
263 1 0.247574 0.449335 0.5
183 1 0.30573 0.491843 0.5
347 1 0.229075 0.488339 0.5
302 1 0.400712 0.490035 0.5
50 1 0.498948 0.206911 0.5
215 1 0.16921 0.131056 0.5
308 1 0.161833 0.432472 0.5
396 1 0.0735086 0.12435 0.5
85 1 0.0591704 0.380158 0.5
2 1 0.1803 0.181258 0.5
16 1 0.202105 0.456082 0.5
327 1 0.427633 0.350606 0.5
241 1 0.0733837 0.0418663 0.5
73 1 0.0519572 0.259192 0.5
46 1 0.00942727 0.293249 0.5
345 1 0.496005 0.498446 0.5
123 1 0.353484 0.497711 0.5
284 1 0.0743527 -8.78312e-05 0.5
330 1 0.0983636 0.659755 0.5
264 1 0.210956 0.72884 0.5
45 1 0.302672 0.741395 0.5
8 1 0.189295 0.506799 0.5
245 1 0.128487 0.754577 0.5
275 1 0.363845 0.807903 0.5
306 1 0.38337 0.530389 0.5
293 1 0.0883905 0.733884 0.5
21 1 0.151861 0.555718 0.5
274 1 0.204561 0.563022 0.5
385 1 0.280699 0.981943 0.5
37 1 0.0481129 0.747718 0.5
303 1 0.251358 0.650704 0.5
358 1 0.115787 0.577984 0.5
301 1 0.276338 0.60914 0.5
273 1 0.000605141 0.893614 0.5
332 1 0.495251 0.544347 0.5
36 1 0.178193 0.594574 0.5
201 1 0.19508 0.774729 0.5
43 1 0.479225 0.681929 0.5
189 1 0.031037 0.549665 0.5
99 1 0.079129 0.559204 0.5
108 1 0.152531 0.98899 0.5
278 1 0.453211 0.644046 0.5
363 1 0.0556734 0.646481 0.5
77 1 0.227693 0.812015 0.5
95 1 0.0852672 0.615055 0.5
234 1 0.36236 0.581758 0.5
162 1 0.291622 0.877365 0.5
352 1 0.261778 0.774455 0.5
317 1 0.177119 0.820485 0.5
322 1 0.219681 0.61548 0.5
384 1 0.496259 0.638805 0.5
149 1 0.408309 0.572529 0.5
260 1 0.480717 0.867265 0.5
51 1 0.154297 0.641982 0.5
240 1 0.125968 0.806941 0.5
76 1 0.452111 0.506042 0.5
254 1 0.289281 0.67153 0.5
78 1 0.464136 0.751834 0.5
261 1 0.0808402 0.78183 0.5
299 1 0.243308 0.559803 0.5
117 1 0.450125 0.56146 0.5
53 1 0.317108 0.613836 0.5
391 1 0.164116 0.702292 0.5
276 1 0.0498197 0.876487 0.5
188 1 0.0830921 0.899402 0.5
103 1 0.306077 0.795036 0.5
315 1 0.284945 0.562676 0.5
14 1 0.330577 0.651927 0.5
390 1 0.107748 0.519472 0.5
357 1 0.134764 0.899236 0.5
386 1 0.140262 0.944518 0.5
57 1 0.331281 0.709576 0.5
49 1 0.383 0.912607 0.5
250 1 0.381074 0.847233 0.5
204 1 0.416318 0.662132 0.5
350 1 0.463127 0.952688 0.5
125 1 0.443894 0.702493 0.5
135 1 0.151393 0.852616 0.5
212 1 0.351703 0.882911 0.5
87 1 0.207155 0.853064 0.5
18 1 0.308599 0.837592 0.5
282 1 0.359499 0.678623 0.5
187 1 0.105502 0.9722 0.5
55 1 0.400185 0.954602 0.5
130 1 0.256912 0.73193 0.5
88 1 0.498507 0.596145 0.5
182 1 0.0384405 0.803479 0.5
115 1 0.0986952 0.858575 0.5
5 1 0.0110882 0.641814 0.5
83 1 0.247619 0.957401 0.5
145 1 0.267787 0.912199 0.5
172 1 0.312305 0.92862 0.5
238 1 0.411417 0.762059 0.5
137 1 0.408134 0.81068 0.5
387 1 0.206649 0.975593 0.5
214 1 0.0625848 0.835832 0.5
105 1 0.210848 0.67007 0.5
298 1 0.1753 0.896346 0.5
227 1 0.342813 0.760944 0.5
31 1 0.497855 0.787821 0.5
126 1 0.384465 0.994322 0.5
165 1 0.337609 0.962244 0.5
235 1 0.443025 0.838812 0.5
340 1 0.0386722 0.687757 0.5
190 1 0.0607088 0.51892 0.5
69 1 0.41663 0.618787 0.5
3 1 0.388947 0.708324 0.5
44 1 0.0261831 0.593571 0.5
56 1 0.42391 0.897867 0.5
210 1 0.444979 0.791938 0.5
203 1 0.0593122 0.958665 0.5
372 1 0.480664 0.910277 0.5
216 1 0.220855 0.909603 0.5
92 1 0.0169957 0.505753 0.5
346 1 0.322434 0.541105 0.5
392 1 0.268891 0.515671 0.5
91 1 0.0184187 0.981856 0.5
208 1 0.0112917 0.834914 0.5
286 1 0.498538 0.972133 0.5
266 1 0.950557 0.0236699 0.5
178 1 0.900558 0.137845 0.5
25 1 0.82415 0.463572 0.5
93 1 0.99573 0.0242023 0.5
129 1 0.701609 0.438461 0.5
312 1 0.779011 0.44418 0.5
344 1 0.810365 0.202251 0.5
333 1 0.769491 0.0391425 0.5
251 1 0.840228 0.0536241 0.5
196 1 0.974319 0.463339 0.5
343 1 0.847873 0.0945881 0.5
305 1 0.523305 0.0749297 0.5
20 1 0.67176 0.00336574 0.5
163 1 0.867462 0.0197459 0.5
118 1 0.586105 0.244942 0.5
122 1 0.972568 0.182568 0.5
71 1 0.724447 0.0311604 0.5
23 1 0.793465 0.0772217 0.5
222 1 0.664118 0.104594 0.5
228 1 0.859126 0.219011 0.5
151 1 0.662215 0.468803 0.5
22 1 0.93294 0.117149 0.5
270 1 0.950642 0.383637 0.5
371 1 0.847077 0.159232 0.5
334 1 0.755136 0.196628 0.5
19 1 0.948297 0.228057 0.5
373 1 0.720683 0.22154 0.5
376 1 0.74949 0.0815254 0.5
265 1 0.579711 0.0896913 0.5
288 1 0.712869 0.110398 0.5
199 1 0.790426 0.166598 0.5
84 1 0.930424 0.308513 0.5
364 1 0.863517 0.473727 0.5
59 1 0.79885 0.00161533 0.5
136 1 0.643159 0.283243 0.5
247 1 0.759397 0.133919 0.5
321 1 0.828867 0.342358 0.5
377 1 0.8903 0.187923 0.5
89 1 0.91381 0.358716 0.5
33 1 0.850882 0.264193 0.5
359 1 0.587717 0.184708 0.5
110 1 0.819755 0.128932 0.5
325 1 0.664962 0.146318 0.5
97 1 0.627045 0.203836 0.5
176 1 0.786041 0.349493 0.5
342 1 0.805739 0.297544 0.5
96 1 0.745982 0.37916 0.5
337 1 0.675948 0.227485 0.5
175 1 0.776943 0.25341 0.5
231 1 0.642074 0.0574234 0.5
269 1 0.619834 0.472534 0.5
28 1 0.622355 0.102104 0.5
154 1 0.690117 0.186164 0.5
160 1 0.787804 0.391698 0.5
267 1 0.886486 0.284266 0.5
52 1 0.752356 0.286764 0.5
74 1 0.693238 0.266114 0.5
27 1 0.978077 0.343624 0.5
48 1 0.863132 0.320404 0.5
246 1 0.674855 0.40614 0.5
180 1 0.604288 0.139857 0.5
213 1 0.933864 0.167419 0.5
393 1 0.684276 0.313817 0.5
200 1 0.856718 0.419162 0.5
205 1 0.908034 0.400125 0.5
233 1 0.560609 0.438137 0.5
400 1 0.635913 0.243112 0.5
143 1 0.867591 0.367382 0.5
268 1 0.724874 0.34159 0.5
252 1 0.828283 0.38294 0.5
323 1 0.954409 0.273171 0.5
30 1 0.569168 0.382369 0.5
381 1 0.537339 0.472036 0.5
121 1 0.531018 0.364078 0.5
128 1 0.583504 0.288827 0.5
146 1 0.902484 0.076913 0.5
285 1 0.682274 0.0660617 0.5
341 1 0.908114 0.475309 0.5
229 1 0.785474 0.484355 0.5
307 1 0.640011 0.379865 0.5
224 1 0.639334 0.427736 0.5
60 1 0.506018 0.323172 0.5
296 1 0.963216 0.423788 0.5
181 1 0.64825 0.329132 0.5
258 1 0.58624 0.0107319 0.5
184 1 0.604021 0.0479684 0.5
256 1 0.52369 0.0071466 0.5
106 1 0.953574 0.0662639 0.5
194 1 0.549189 0.124847 0.5
236 1 0.900511 0.245518 0.5
313 1 0.600683 0.420851 0.5
7 1 0.697939 0.37424 0.5
287 1 0.514043 0.162047 0.5
68 1 0.547524 0.191876 0.5
294 1 0.521435 0.278866 0.5
144 1 0.905069 0.0347511 0.5
320 1 0.712553 0.486031 0.5
383 1 0.507043 0.119915 0.5
80 1 0.996659 0.0986147 0.5
179 1 0.989529 0.142063 0.5
39 1 0.76752 0.971006 0.5
354 1 0.574671 0.834569 0.5
374 1 0.836107 0.544302 0.5
29 1 0.884422 0.555803 0.5
397 1 0.91191 0.588954 0.5
62 1 0.87899 0.515713 0.5
192 1 0.568927 0.508354 0.5
47 1 0.613771 0.942043 0.5
365 1 0.512876 0.831422 0.5
72 1 0.744432 0.630733 0.5
379 1 0.550158 0.601999 0.5
167 1 0.796866 0.60847 0.5
356 1 0.654042 0.621388 0.5
86 1 0.989535 0.56597 0.5
197 1 0.733759 0.546716 0.5
13 1 0.969171 0.640497 0.5
360 1 0.939233 0.557522 0.5
300 1 0.539493 0.542844 0.5
54 1 0.776143 0.533426 0.5
186 1 0.630852 0.55986 0.5
32 1 0.575173 0.569222 0.5
177 1 0.957433 0.893188 0.5
138 1 0.617523 0.520694 0.5
218 1 0.530658 0.749216 0.5
257 1 0.658969 0.699762 0.5
290 1 0.811409 0.648538 0.5
253 1 0.904005 0.706285 0.5
67 1 0.910964 0.755144 0.5
171 1 0.696572 0.843152 0.5
328 1 0.69231 0.791179 0.5
292 1 0.845243 0.982861 0.5
193 1 0.575456 0.666857 0.5
295 1 0.780332 0.687999 0.5
111 1 0.859891 0.726018 0.5
12 1 0.909578 0.914346 0.5
119 1 0.608854 0.599596 0.5
147 1 0.826563 0.702828 0.5
101 1 0.703782 0.59697 0.5
107 1 0.929075 0.80221 0.5
339 1 0.959212 0.599306 0.5
221 1 0.985444 0.804073 0.5
219 1 0.840131 0.585272 0.5
289 1 0.676748 0.739195 0.5
395 1 0.767572 0.773881 0.5
207 1 0.942844 0.678586 0.5
398 1 0.751377 0.820204 0.5
58 1 0.628192 0.994908 0.5
75 1 0.529171 0.69026 0.5
157 1 0.971958 0.72178 0.5
155 1 0.603307 0.704565 0.5
242 1 0.731291 0.72692 0.5
156 1 0.8714 0.61057 0.5
166 1 0.858918 0.76891 0.5
158 1 0.835221 0.80376 0.5
24 1 0.560738 0.797408 0.5
65 1 0.971488 0.506495 0.5
239 1 0.558134 0.922081 0.5
283 1 0.615952 0.649053 0.5
335 1 0.609514 0.784571 0.5
380 1 0.804723 0.82738 0.5
168 1 0.696102 0.646273 0.5
134 1 0.796998 0.890804 0.5
40 1 0.957682 0.833892 0.5
17 1 0.682158 0.961512 0.5
142 1 0.883256 0.875041 0.5
291 1 0.863363 0.910131 0.5
338 1 0.83736 0.943058 0.5
255 1 0.618289 0.896527 0.5
202 1 0.709029 0.684517 0.5
34 1 0.723658 0.964154 0.5
15 1 0.81533 0.767865 0.5
319 1 0.788956 0.733311 0.5
124 1 0.834234 0.872084 0.5
152 1 0.583866 0.754325 0.5
141 1 0.688541 0.522226 0.5
394 1 0.882295 0.664271 0.5
6 1 0.927929 0.512754 0.5
316 1 0.653809 0.77806 0.5
318 1 0.652982 0.819327 0.5
353 1 0.633505 0.858229 0.5
159 1 0.881137 0.832346 0.5
26 1 0.79404 0.930838 0.5
272 1 0.936586 0.950774 0.5
109 1 0.9908 0.685101 0.5
304 1 0.722867 0.765492 0.5
230 1 0.748618 0.863594 0.5
153 1 0.662369 0.925717 0.5
150 1 0.581922 0.879796 0.5
11 1 0.6267 0.738275 0.5
367 1 0.523282 0.892595 0.5
223 1 0.966956 0.764297 0.5
331 1 0.679276 0.883184 0.5
63 1 0.671503 0.573865 0.5
191 1 0.511853 0.931995 0.5
148 1 0.970453 0.982959 0.5
297 1 0.888581 0.958741 0.5
4 1 0.973746 0.933477 0.5
