ITEM: TIMESTEP
100000
ITEM: NUMBER OF ATOMS
400
ITEM: BOX BOUNDS pp pp pp
0.0000000000000000e+00 2.8284271247461902e+01
0.0000000000000000e+00 2.8284271247461902e+01
-7.0710678118654757e-01 7.0710678118654757e-01
ITEM: ATOMS id type xs ys zs
382 1 0.0408359 0.0223709 0.5
105 1 0.205885 0.00430249 0.5
302 1 0.34069 0.0225693 0.5
120 1 0.430236 0.0179711 0.5
374 1 0.467424 0.0222316 0.5
353 1 0.0982214 0.0352752 0.5
30 1 0.174533 0.0364593 0.5
280 1 0.230645 0.0320642 0.5
96 1 0.278358 0.0264041 0.5
299 1 0.00609083 0.0694341 0.5
122 1 0.0522784 0.0642871 0.5
398 1 0.260314 0.0562512 0.5
113 1 0.394717 0.0604981 0.5
355 1 0.213078 0.076789 0.5
277 1 0.289425 0.0717334 0.5
73 1 0.452168 0.077426 0.5
225 1 0.00755772 0.11725 0.5
147 1 0.157513 0.100775 0.5
324 1 0.196083 0.118259 0.5
87 1 0.238817 0.0982503 0.5
262 1 0.356085 0.0988609 0.5
157 1 0.448185 0.115758 0.5
140 1 0.0529501 0.123251 0.5
77 1 0.114417 0.11923 0.5
53 1 0.292069 0.12754 0.5
258 1 0.359584 0.136313 0.5
170 1 0.409555 0.126253 0.5
296 1 0.003511 0.152877 0.5
15 1 0.0384184 0.158141 0.5
357 1 0.108163 0.159285 0.5
328 1 0.154058 0.157748 0.5
161 1 0.236141 0.155004 0.5
150 1 0.317105 0.153902 0.5
64 1 0.445418 0.151612 0.5
13 1 0.487863 0.14636 0.5
351 1 0.202337 0.17726 0.5
102 1 0.283928 0.16899 0.5
211 1 0.314607 0.19025 0.5
392 1 0.353858 0.179373 0.5
124 1 0.386785 0.168459 0.5
59 1 0.488282 0.189127 0.5
14 1 0.0570856 0.200319 0.5
278 1 0.114892 0.20317 0.5
209 1 0.160612 0.205855 0.5
304 1 0.250916 0.195817 0.5
282 1 0.395831 0.20789 0.5
224 1 0.204852 0.223714 0.5
81 1 0.362414 0.224631 0.5
322 1 0.433369 0.219916 0.5
55 1 0.0257159 0.262435 0.5
75 1 0.222316 0.266862 0.5
32 1 0.429898 0.263003 0.5
335 1 0.0108868 0.2991 0.5
121 1 0.125017 0.302181 0.5
11 1 0.168045 0.287384 0.5
148 1 0.29763 0.286928 0.5
34 1 0.355683 0.289033 0.5
253 1 0.454554 0.301058 0.5
162 1 0.487254 0.287308 0.5
397 1 0.0903096 0.329233 0.5
104 1 0.181487 0.323083 0.5
208 1 0.215563 0.32265 0.5
108 1 0.317216 0.324435 0.5
285 1 0.144189 0.335737 0.5
219 1 0.267156 0.350057 0.5
187 1 0.342261 0.356705 0.5
176 1 0.399943 0.335753 0.5
385 1 0.481135 0.348528 0.5
373 1 0.0404723 0.380904 0.5
218 1 0.194761 0.35892 0.5
201 1 0.305228 0.372519 0.5
339 1 0.101183 0.391455 0.5
42 1 0.171892 0.385974 0.5
185 1 0.208619 0.392643 0.5
310 1 0.387897 0.38251 0.5
263 1 0.469171 0.383906 0.5
190 1 0.0169908 0.406846 0.5
365 1 0.244056 0.408325 0.5
229 1 0.283672 0.410261 0.5
88 1 0.316368 0.428006 0.5
155 1 0.021934 0.445784 0.5
309 1 0.113069 0.442435 0.5
244 1 0.145188 0.430607 0.5
54 1 0.188744 0.444871 0.5
348 1 0.267755 0.445636 0.5
216 1 0.350041 0.430461 0.5
126 1 0.400076 0.4413 0.5
242 1 0.321717 0.468889 0.5
375 1 0.431661 0.473976 0.5
273 1 0.493642 0.47561 0.5
89 1 0.026918 0.479979 0.5
329 1 0.0959082 0.477223 0.5
377 1 0.144608 0.479357 0.5
82 1 0.189272 0.48994 0.5
168 1 0.276684 0.49062 0.5
184 1 0.353665 0.49486 0.5
8 1 0.0679371 0.513968 0.5
125 1 0.244896 0.508278 0.5
21 1 0.307673 0.507504 0.5
388 1 0.404286 0.50758 0.5
269 1 0.452833 0.509396 0.5
156 1 0.137207 0.534003 0.5
9 1 0.172644 0.524429 0.5
212 1 0.279815 0.532465 0.5
384 1 0.352318 0.5402 0.5
50 1 0.432691 0.543141 0.5
5 1 0.496681 0.525251 0.5
232 1 0.0391865 0.551576 0.5
240 1 0.21124 0.557758 0.5
62 1 0.303325 0.566855 0.5
399 1 0.398093 0.562006 0.5
44 1 0.462736 0.559899 0.5
321 1 0.0571768 0.588247 0.5
200 1 0.144513 0.571471 0.5
146 1 0.192955 0.587008 0.5
249 1 0.233815 0.584603 0.5
19 1 0.367942 0.58671 0.5
275 1 0.0824269 0.615629 0.5
231 1 0.117386 0.596624 0.5
396 1 0.281086 0.599504 0.5
4 1 0.400223 0.600369 0.5
20 1 0.477727 0.612208 0.5
293 1 0.0413093 0.620739 0.5
363 1 0.26027 0.628394 0.5
279 1 0.324051 0.624142 0.5
94 1 0.382948 0.639797 0.5
18 1 0.438795 0.625728 0.5
313 1 0.026636 0.655032 0.5
383 1 0.0627509 0.656642 0.5
92 1 0.267671 0.663077 0.5
305 1 0.30969 0.65548 0.5
196 1 0.0899075 0.682236 0.5
114 1 0.135755 0.669335 0.5
107 1 0.176978 0.677 0.5
331 1 0.35521 0.673734 0.5
270 1 0.419837 0.669732 0.5
172 1 0.462191 0.679126 0.5
47 1 0.0348212 0.705232 0.5
193 1 0.259052 0.705132 0.5
133 1 0.317202 0.699878 0.5
169 1 0.394714 0.701028 0.5
74 1 0.0773779 0.720199 0.5
37 1 0.151097 0.727718 0.5
35 1 0.224813 0.71934 0.5
16 1 0.288844 0.732041 0.5
291 1 0.461002 0.727632 0.5
295 1 0.0460954 0.742511 0.5
250 1 0.175462 0.754899 0.5
344 1 0.328651 0.740769 0.5
192 1 0.419023 0.753889 0.5
358 1 0.150438 0.777784 0.5
307 1 0.201785 0.781924 0.5
337 1 0.258289 0.770789 0.5
289 1 0.455369 0.780623 0.5
306 1 0.491864 0.772976 0.5
320 1 0.0414405 0.794207 0.5
111 1 0.0778506 0.788541 0.5
7 1 0.23749 0.799086 0.5
359 1 0.384152 0.799643 0.5
316 1 0.117355 0.819596 0.5
343 1 0.160697 0.82423 0.5
40 1 0.317205 0.818312 0.5
78 1 0.428132 0.819282 0.5
323 1 0.0340769 0.854205 0.5
191 1 0.0951129 0.845773 0.5
178 1 0.225385 0.840403 0.5
189 1 0.289166 0.853412 0.5
389 1 0.45692 0.835934 0.5
252 1 0.00224891 0.870924 0.5
254 1 0.0671069 0.870772 0.5
1 1 0.145776 0.858171 0.5
83 1 0.2359 0.87692 0.5
393 1 0.346194 0.869389 0.5
260 1 0.384632 0.874998 0.5
243 1 0.431931 0.867268 0.5
173 1 0.00415938 0.903371 0.5
139 1 0.123394 0.88975 0.5
350 1 0.185637 0.884513 0.5
131 1 0.297481 0.904584 0.5
65 1 0.46323 0.891415 0.5
205 1 0.0859451 0.923412 0.5
251 1 0.387853 0.926627 0.5
276 1 0.422803 0.908391 0.5
347 1 0.0519908 0.940619 0.5
179 1 0.138121 0.938875 0.5
215 1 0.18657 0.950323 0.5
29 1 0.257862 0.933349 0.5
369 1 0.340719 0.934783 0.5
364 1 0.46112 0.930648 0.5
371 1 0.0995336 0.956631 0.5
204 1 0.318003 0.961069 0.5
2 1 0.484497 0.959967 0.5
391 1 0.00210127 0.996102 0.5
233 1 0.0725575 0.990228 0.5
246 1 0.108169 0.988993 0.5
110 1 0.144954 0.991855 0.5
26 1 0.247377 0.979633 0.5
395 1 0.381372 0.990809 0.5
283 1 0.435445 0.977372 0.5
142 1 0.591113 0.0151114 0.5
106 1 0.733662 0.0146552 0.5
367 1 0.832451 0.0141108 0.5
325 1 0.875285 0.00655578 0.5
226 1 0.916418 0.0092055 0.5
36 1 0.964543 0.0151556 0.5
177 1 0.525327 0.0264237 0.5
366 1 0.677497 0.0291039 0.5
265 1 0.796319 0.0304083 0.5
354 1 0.889106 0.0405733 0.5
346 1 0.938962 0.0414641 0.5
312 1 0.519421 0.0678494 0.5
210 1 0.610201 0.068518 0.5
69 1 0.646009 0.048539 0.5
227 1 0.752789 0.0609315 0.5
341 1 0.819033 0.0550521 0.5
109 1 0.56273 0.0739464 0.5
338 1 0.660337 0.0807469 0.5
164 1 0.69494 0.0926489 0.5
130 1 0.858321 0.0761901 0.5
186 1 0.909456 0.0774906 0.5
115 1 0.510286 0.111475 0.5
314 1 0.545099 0.107559 0.5
33 1 0.808477 0.105319 0.5
281 1 0.842943 0.10626 0.5
72 1 0.922156 0.112759 0.5
345 1 0.96692 0.117492 0.5
86 1 0.569493 0.138753 0.5
311 1 0.617267 0.122014 0.5
57 1 0.72153 0.138434 0.5
294 1 0.76376 0.125211 0.5
235 1 0.523524 0.150789 0.5
256 1 0.681602 0.144158 0.5
387 1 0.800186 0.15718 0.5
261 1 0.914558 0.154717 0.5
326 1 0.566159 0.184557 0.5
66 1 0.661211 0.176546 0.5
379 1 0.715744 0.189016 0.5
132 1 0.774057 0.188177 0.5
301 1 0.900584 0.188002 0.5
151 1 0.532589 0.208188 0.5
394 1 0.629974 0.208763 0.5
287 1 0.805147 0.201518 0.5
266 1 0.94002 0.193132 0.5
84 1 0.563934 0.222322 0.5
257 1 0.593472 0.237966 0.5
43 1 0.766393 0.220254 0.5
167 1 0.825623 0.234694 0.5
213 1 0.89773 0.223881 0.5
206 1 0.992196 0.220066 0.5
152 1 0.556856 0.256226 0.5
222 1 0.642272 0.255943 0.5
12 1 0.679998 0.24015 0.5
180 1 0.724226 0.247303 0.5
207 1 0.78418 0.251124 0.5
48 1 0.977586 0.26104 0.5
80 1 0.524116 0.269755 0.5
159 1 0.864631 0.271453 0.5
194 1 0.940584 0.264736 0.5
317 1 0.575447 0.29973 0.5
60 1 0.610797 0.306134 0.5
166 1 0.797896 0.287929 0.5
137 1 0.900326 0.298404 0.5
237 1 0.952575 0.300991 0.5
119 1 0.683079 0.321524 0.5
197 1 0.739452 0.319831 0.5
24 1 0.79103 0.322039 0.5
52 1 0.873317 0.331741 0.5
22 1 0.531871 0.348169 0.5
101 1 0.593231 0.345057 0.5
390 1 0.70788 0.352844 0.5
128 1 0.760661 0.348761 0.5
334 1 0.821513 0.334768 0.5
85 1 0.949977 0.334832 0.5
284 1 0.998794 0.337621 0.5
61 1 0.577422 0.37738 0.5
149 1 0.623543 0.378509 0.5
286 1 0.828453 0.376386 0.5
319 1 0.876462 0.367579 0.5
352 1 0.924553 0.367396 0.5
135 1 0.536607 0.388859 0.5
372 1 0.674707 0.387504 0.5
17 1 0.773853 0.382401 0.5
292 1 0.931859 0.403333 0.5
153 1 0.980499 0.381224 0.5
163 1 0.564854 0.408352 0.5
182 1 0.620618 0.414112 0.5
362 1 0.679631 0.420857 0.5
112 1 0.799765 0.423436 0.5
386 1 0.856179 0.425552 0.5
199 1 0.891598 0.409341 0.5
238 1 0.504902 0.432298 0.5
91 1 0.584539 0.437843 0.5
272 1 0.649783 0.450031 0.5
97 1 0.920197 0.43677 0.5
303 1 0.966856 0.441666 0.5
308 1 0.56088 0.468761 0.5
38 1 0.607691 0.467361 0.5
51 1 0.68889 0.475314 0.5
380 1 0.723123 0.473096 0.5
3 1 0.775137 0.452748 0.5
98 1 0.950882 0.472739 0.5
378 1 0.535624 0.497956 0.5
10 1 0.629324 0.497787 0.5
171 1 0.845005 0.480377 0.5
138 1 0.7346 0.506833 0.5
56 1 0.795633 0.516032 0.5
330 1 0.879544 0.505989 0.5
340 1 0.995547 0.517213 0.5
230 1 0.54606 0.539079 0.5
145 1 0.708998 0.540996 0.5
76 1 0.829774 0.53144 0.5
223 1 0.944159 0.524599 0.5
400 1 0.604169 0.557984 0.5
95 1 0.676304 0.567632 0.5
144 1 0.815289 0.570126 0.5
315 1 0.946123 0.563934 0.5
333 1 0.983851 0.55462 0.5
274 1 0.543238 0.577827 0.5
336 1 0.634375 0.578462 0.5
202 1 0.739647 0.571614 0.5
332 1 0.612639 0.607654 0.5
234 1 0.701846 0.604067 0.5
49 1 0.775685 0.616714 0.5
217 1 0.82343 0.611308 0.5
297 1 0.90058 0.617583 0.5
268 1 0.929714 0.60007 0.5
25 1 0.560757 0.625647 0.5
290 1 0.653472 0.623226 0.5
23 1 0.85782 0.640684 0.5
68 1 0.976832 0.624756 0.5
63 1 0.525732 0.656816 0.5
264 1 0.594959 0.663808 0.5
134 1 0.689003 0.657776 0.5
160 1 0.827727 0.658372 0.5
221 1 0.936359 0.644705 0.5
129 1 0.97101 0.657866 0.5
300 1 0.64735 0.687846 0.5
356 1 0.726914 0.674502 0.5
175 1 0.762859 0.679449 0.5
116 1 0.93907 0.685572 0.5
71 1 0.563174 0.69842 0.5
58 1 0.880837 0.697274 0.5
195 1 0.681812 0.727672 0.5
6 1 0.722439 0.733689 0.5
117 1 0.762466 0.731851 0.5
181 1 0.808994 0.719501 0.5
236 1 0.860085 0.727203 0.5
255 1 0.967824 0.729424 0.5
31 1 0.589819 0.747684 0.5
241 1 0.655681 0.755784 0.5
203 1 0.559149 0.773606 0.5
79 1 0.597387 0.782196 0.5
41 1 0.704476 0.776015 0.5
245 1 0.779333 0.766595 0.5
45 1 0.829303 0.771915 0.5
165 1 0.891992 0.783921 0.5
70 1 0.983982 0.774323 0.5
247 1 0.522034 0.797387 0.5
288 1 0.83181 0.806271 0.5
239 1 0.935064 0.786413 0.5
136 1 0.598021 0.825257 0.5
67 1 0.706778 0.815178 0.5
143 1 0.763596 0.818443 0.5
46 1 0.877267 0.819618 0.5
198 1 0.996757 0.817075 0.5
123 1 0.506752 0.846317 0.5
267 1 0.556103 0.845583 0.5
220 1 0.694982 0.856146 0.5
27 1 0.78947 0.842419 0.5
158 1 0.840603 0.846579 0.5
103 1 0.925719 0.842689 0.5
93 1 0.976108 0.847063 0.5
271 1 0.60204 0.864328 0.5
327 1 0.668153 0.885619 0.5
39 1 0.731883 0.894453 0.5
370 1 0.768198 0.895049 0.5
349 1 0.843347 0.90301 0.5
183 1 0.886321 0.883768 0.5
381 1 0.963394 0.883832 0.5
368 1 0.509151 0.906677 0.5
298 1 0.590297 0.907962 0.5
259 1 0.689613 0.923115 0.5
100 1 0.802638 0.915178 0.5
318 1 0.873061 0.923536 0.5
342 1 0.908544 0.92694 0.5
28 1 0.947745 0.918064 0.5
118 1 0.540821 0.949079 0.5
99 1 0.718329 0.946942 0.5
127 1 0.768194 0.940688 0.5
376 1 0.820224 0.947944 0.5
361 1 0.587625 0.962086 0.5
360 1 0.743962 0.974775 0.5
90 1 0.865043 0.961614 0.5
154 1 0.962828 0.952803 0.5
141 1 0.998921 0.952469 0.5
214 1 0.506191 0.993299 0.5
174 1 0.550805 0.997226 0.5
228 1 0.631435 0.993088 0.5
188 1 0.669132 0.979546 0.5
248 1 0.774938 0.997215 0.5
