LAMMPS (15 Sep 2022)
OMP_NUM_THREADS environment is not set. Defaulting to 1 thread. (src/comm.cpp:98)
  using 1 OpenMP thread(s) per MPI task
Reading restart file ...
  restart file = 15 Sep 2022, LAMMPS = 15 Sep 2022
  restoring atom style atomic from restart
  orthogonal box = (0 0 0) to (6.6943295 6.6943295 6.6943295)
  1 by 2 by 2 MPI processor grid
  restoring pair style lj/cut from restart
  360 atoms
  read_restart CPU = 0.028 seconds
Setting up equilibration run
Resetting global fix info from restart file:
  fix style: nvt, fix ID: 1
Generated 0 of 1 mixed pair_coeff terms from geometric mixing rule
All restart file global fix info was re-assigned
Neighbor list info ...
  update: every = 1 steps, delay = 20 steps, check = yes
  max neighbors/atom: 2000, page size: 100000
  master list distance cutoff = 3
  ghost atom cutoff = 3
  binsize = 1.5, bins = 5 5 5
  1 neighbor lists, perpetual/occasional/extra = 1 0 0
  (1) pair lj/cut, perpetual
      attributes: half, newton on
      pair build: half/bin/atomonly/newton
      stencil: half/bin/3d
      bin: standard
Setting up Verlet run ...
  Unit style    : lj
  Current step  : 0
  Time step     : 0.002
Per MPI rank memory allocation (min/avg/max) = 3.139 | 3.139 | 3.139 Mbytes
   Step          Temp          E_pair         E_mol          TotEng         Press     
         0   1.5214001     -5.1923617      0             -2.9166007      15.468956    
      1000   1.5243401     -5.1680822      0             -2.8879235      15.677796    
      2000   1.6907715     -5.1970825      0             -2.6679702      15.738205    
      2500   1.5282635     -5.3524107      0             -3.0663833      14.550756    
Loop time of 0.249362 on 4 procs for 2500 steps with 360 atoms

Performance: 1732418.841 tau/day, 10025.572 timesteps/s, 3.609 Matom-step/s
97.5% CPU use with 4 MPI tasks x 1 OpenMP threads

MPI task timing breakdown:
Section |  min time  |  avg time  |  max time  |%varavg| %total
---------------------------------------------------------------
Pair    | 0.13239    | 0.1359     | 0.13971    |   0.9 | 54.50
Neigh   | 0.014815   | 0.015068   | 0.015455   |   0.2 |  6.04
Comm    | 0.064818   | 0.072619   | 0.077128   |   1.8 | 29.12
Output  | 0.011706   | 0.014507   | 0.020414   |   2.9 |  5.82
Modify  | 0.0064836  | 0.0068604  | 0.0072493  |   0.3 |  2.75
Other   |            | 0.004411   |            |       |  1.77

Nlocal:             90 ave          93 max          87 min
Histogram: 1 0 0 0 0 2 0 0 0 1
Nghost:           1230 ave        1250 max        1211 min
Histogram: 1 1 0 0 0 0 0 1 0 1
Neighs:         5197.5 ave        5231 max        5165 min
Histogram: 1 0 0 1 0 1 0 0 0 1

Total # of neighbors = 20790
Ave neighs/atom = 57.75
Neighbor list builds = 86
Dangerous builds = 0
Total wall time: 0:00:00
LAMMPS (15 Sep 2022)
OMP_NUM_THREADS environment is not set. Defaulting to 1 thread. (src/comm.cpp:98)
  using 1 OpenMP thread(s) per MPI task
Reading restart file ...
  restart file = 15 Sep 2022, LAMMPS = 15 Sep 2022
  restoring atom style atomic from restart
  orthogonal box = (0 0 0) to (6.6943295 6.6943295 6.6943295)
  1 by 2 by 2 MPI processor grid
  restoring pair style lj/cut from restart
  360 atoms
  read_restart CPU = 0.055 seconds
Setting up equilibration run
Resetting global fix info from restart file:
  fix style: nvt, fix ID: 1
Generated 0 of 1 mixed pair_coeff terms from geometric mixing rule
All restart file global fix info was re-assigned
Neighbor list info ...
  update: every = 1 steps, delay = 20 steps, check = yes
  max neighbors/atom: 2000, page size: 100000
  master list distance cutoff = 3
  ghost atom cutoff = 3
  binsize = 1.5, bins = 5 5 5
  1 neighbor lists, perpetual/occasional/extra = 1 0 0
  (1) pair lj/cut, perpetual
      attributes: half, newton on
      pair build: half/bin/atomonly/newton
      stencil: half/bin/3d
      bin: standard
Setting up Verlet run ...
  Unit style    : lj
  Current step  : 0
  Time step     : 0.002
Per MPI rank memory allocation (min/avg/max) = 3.138 | 3.138 | 3.138 Mbytes
   Step          Temp          E_pair         E_mol          TotEng         Press     
         0   1.0108632     -6.013634       0             -4.5015511      9.960712     
      2000   0.97791638    -5.8804359      0             -4.417636       10.84871     
      4000   0.95186572    -6.0468417      0             -4.6230092      9.6139793    
      6000   0.97886946    -6.0562907      0             -4.5920652      9.5700671    
      8000   1.0168331     -5.9534857      0             -4.4324728      10.274187    
     10000   1.0837255     -5.9524617      0             -4.331389       10.462047    
     12000   0.95832388    -5.9913338      0             -4.557841       10.180617    
     12500   1.0406225     -6.1020685      0             -4.5454707      9.4486959    
Loop time of 1.08231 on 4 procs for 12500 steps with 360 atoms

Performance: 1995733.311 tau/day, 11549.383 timesteps/s, 4.158 Matom-step/s
99.3% CPU use with 4 MPI tasks x 1 OpenMP threads

MPI task timing breakdown:
Section |  min time  |  avg time  |  max time  |%varavg| %total
---------------------------------------------------------------
Pair    | 0.63414    | 0.65359    | 0.67782    |   1.9 | 60.39
Neigh   | 0.057509   | 0.05876    | 0.060339   |   0.4 |  5.43
Comm    | 0.28148    | 0.30415    | 0.3242     |   2.8 | 28.10
Output  | 0.015349   | 0.018397   | 0.024839   |   2.8 |  1.70
Modify  | 0.029089   | 0.031083   | 0.032838   |   0.9 |  2.87
Other   |            | 0.01633    |            |       |  1.51

Nlocal:             90 ave          92 max          88 min
Histogram: 1 0 1 0 0 0 0 1 0 1
Nghost:           1238 ave        1243 max        1230 min
Histogram: 1 0 0 0 0 0 1 1 0 1
Neighs:        5188.25 ave        5370 max        5014 min
Histogram: 1 0 0 0 1 1 0 0 0 1

Total # of neighbors = 20753
Ave neighs/atom = 57.647222
Neighbor list builds = 343
Dangerous builds = 0
Total wall time: 0:00:01
LAMMPS (15 Sep 2022)
OMP_NUM_THREADS environment is not set. Defaulting to 1 thread. (src/comm.cpp:98)
  using 1 OpenMP thread(s) per MPI task
Reading restart file ...
  restart file = 15 Sep 2022, LAMMPS = 15 Sep 2022
  restoring atom style atomic from restart
  orthogonal box = (0 0 0) to (6.6943295 6.6943295 6.6943295)
  1 by 2 by 2 MPI processor grid
  restoring pair style lj/cut from restart
  360 atoms
  read_restart CPU = 0.022 seconds
Setting up equilibration run
Resetting global fix info from restart file:
  fix style: nvt, fix ID: 1
Generated 0 of 1 mixed pair_coeff terms from geometric mixing rule
All restart file global fix info was re-assigned
Neighbor list info ...
  update: every = 1 steps, delay = 25 steps, check = yes
  max neighbors/atom: 2000, page size: 100000
  master list distance cutoff = 3
  ghost atom cutoff = 3
  binsize = 1.5, bins = 5 5 5
  1 neighbor lists, perpetual/occasional/extra = 1 0 0
  (1) pair lj/cut, perpetual
      attributes: half, newton on
      pair build: half/bin/atomonly/newton
      stencil: half/bin/3d
      bin: standard
Setting up Verlet run ...
  Unit style    : lj
  Current step  : 0
  Time step     : 0.002
Per MPI rank memory allocation (min/avg/max) = 3.137 | 3.137 | 3.138 Mbytes
   Step          Temp          E_pair         E_mol          TotEng         Press     
         0   0.86682428    -6.268331       0             -4.9717064      8.0526361    
      5000   0.85363894    -6.1692417      0             -4.8923402      9.0262436    
     10000   1.0349042     -6.1467294      0             -4.5986852      9.2150579    
     15000   0.87158815    -6.1693719      0             -4.8656213      8.8613711    
     20000   0.91302236    -6.1810234      0             -4.8152942      8.7471884    
     25000   0.95578697    -6.2949559      0             -4.8652579      7.9824722    
     30000   0.84109698    -6.1574803      0             -4.8993394      8.6426033    
     35000   0.89461444    -6.1811788      0             -4.8429847      8.7681104    
     37500   0.88314073    -6.1624577      0             -4.8414263      8.809592     
Loop time of 3.19185 on 4 procs for 37500 steps with 360 atoms

Performance: 2030171.348 tau/day, 11748.677 timesteps/s, 4.230 Matom-step/s
99.3% CPU use with 4 MPI tasks x 1 OpenMP threads

MPI task timing breakdown:
Section |  min time  |  avg time  |  max time  |%varavg| %total
---------------------------------------------------------------
Pair    | 1.909      | 1.9607     | 2.0551     |   4.0 | 61.43
Neigh   | 0.16296    | 0.16471    | 0.16807    |   0.5 |  5.16
Comm    | 0.81497    | 0.90759    | 0.95943    |   5.8 | 28.43
Output  | 0.021099   | 0.024504   | 0.031932   |   2.8 |  0.77
Modify  | 0.092883   | 0.095566   | 0.099283   |   0.8 |  2.99
Other   |            | 0.03875    |            |       |  1.21

Nlocal:             90 ave          93 max          88 min
Histogram: 2 0 0 0 0 0 1 0 0 1
Nghost:         1250.5 ave        1279 max        1220 min
Histogram: 1 0 1 0 0 0 0 0 1 1
Neighs:        5195.75 ave        5409 max        4976 min
Histogram: 1 1 0 0 0 0 0 0 1 1

Total # of neighbors = 20783
Ave neighs/atom = 57.730556
Neighbor list builds = 962
Dangerous builds = 0
Total wall time: 0:00:03
LAMMPS (15 Sep 2022)
OMP_NUM_THREADS environment is not set. Defaulting to 1 thread. (src/comm.cpp:98)
  using 1 OpenMP thread(s) per MPI task
Reading restart file ...
  restart file = 15 Sep 2022, LAMMPS = 15 Sep 2022
  restoring atom style atomic from restart
  orthogonal box = (0 0 0) to (6.6943295 6.6943295 6.6943295)
  1 by 2 by 2 MPI processor grid
  restoring pair style lj/cut from restart
  360 atoms
  read_restart CPU = 0.042 seconds
Setting up equilibration run
Resetting global fix info from restart file:
  fix style: nvt, fix ID: 1
Generated 0 of 1 mixed pair_coeff terms from geometric mixing rule
All restart file global fix info was re-assigned
Neighbor list info ...
  update: every = 1 steps, delay = 25 steps, check = yes
  max neighbors/atom: 2000, page size: 100000
  master list distance cutoff = 3
  ghost atom cutoff = 3
  binsize = 1.5, bins = 5 5 5
  1 neighbor lists, perpetual/occasional/extra = 1 0 0
  (1) pair lj/cut, perpetual
      attributes: half, newton on
      pair build: half/bin/atomonly/newton
      stencil: half/bin/3d
      bin: standard
Setting up Verlet run ...
  Unit style    : lj
  Current step  : 0
  Time step     : 0.002
Per MPI rank memory allocation (min/avg/max) = 3.136 | 3.136 | 3.137 Mbytes
   Step          Temp          E_pair         E_mol          TotEng         Press     
         0   0.81376773    -6.300452       0             -5.0831911      7.8028198    
      5000   0.80760317    -6.1846958      0             -4.9766561      8.6196636    
     10000   0.84384236    -6.267293       0             -5.0050455      8.2774864    
     15000   0.8056096     -6.314924       0             -5.1098663      7.7220892    
     20000   0.84004648    -6.3399688      0             -5.0833993      7.7683076    
     25000   0.75589502    -6.4795467      0             -5.3488537      6.7477572    
     30000   0.76499011    -6.4453924      0             -5.3010947      6.8487794    
     35000   0.7649391     -6.3955619      0             -5.2513405      7.2554966    
     37500   0.80734116    -6.381291       0             -5.1736432      7.4939719    
Loop time of 3.123 on 4 procs for 37500 steps with 360 atoms

Performance: 2074926.554 tau/day, 12007.677 timesteps/s, 4.323 Matom-step/s
99.4% CPU use with 4 MPI tasks x 1 OpenMP threads

MPI task timing breakdown:
Section |  min time  |  avg time  |  max time  |%varavg| %total
---------------------------------------------------------------
Pair    | 1.8724     | 1.9322     | 1.9747     |   2.8 | 61.87
Neigh   | 0.14944    | 0.15184    | 0.15434    |   0.5 |  4.86
Comm    | 0.83144    | 0.88152    | 0.94428    |   4.6 | 28.23
Output  | 0.020798   | 0.024223   | 0.031584   |   2.8 |  0.78
Modify  | 0.090058   | 0.092334   | 0.09344    |   0.4 |  2.96
Other   |            | 0.04087    |            |       |  1.31

Nlocal:             90 ave          92 max          87 min
Histogram: 1 0 0 0 1 0 0 0 0 2
Nghost:        1240.75 ave        1267 max        1209 min
Histogram: 1 0 0 0 0 1 1 0 0 1
Neighs:           5189 ave        5452 max        5081 min
Histogram: 2 1 0 0 0 0 0 0 0 1

Total # of neighbors = 20756
Ave neighs/atom = 57.655556
Neighbor list builds = 889
Dangerous builds = 0
Total wall time: 0:00:03
LAMMPS (15 Sep 2022)
OMP_NUM_THREADS environment is not set. Defaulting to 1 thread. (src/comm.cpp:98)
  using 1 OpenMP thread(s) per MPI task
Reading restart file ...
  restart file = 15 Sep 2022, LAMMPS = 15 Sep 2022
  restoring atom style atomic from restart
  orthogonal box = (0 0 0) to (6.6943295 6.6943295 6.6943295)
  1 by 2 by 2 MPI processor grid
  restoring pair style lj/cut from restart
  360 atoms
  read_restart CPU = 0.021 seconds
Setting up equilibration run
Resetting global fix info from restart file:
  fix style: nvt, fix ID: 1
Generated 0 of 1 mixed pair_coeff terms from geometric mixing rule
All restart file global fix info was re-assigned
Neighbor list info ...
  update: every = 1 steps, delay = 25 steps, check = yes
  max neighbors/atom: 2000, page size: 100000
  master list distance cutoff = 3
  ghost atom cutoff = 3
  binsize = 1.5, bins = 5 5 5
  1 neighbor lists, perpetual/occasional/extra = 1 0 0
  (1) pair lj/cut, perpetual
      attributes: half, newton on
      pair build: half/bin/atomonly/newton
      stencil: half/bin/3d
      bin: standard
Setting up Verlet run ...
  Unit style    : lj
  Current step  : 0
  Time step     : 0.003
Per MPI rank memory allocation (min/avg/max) = 3.139 | 3.139 | 3.139 Mbytes
   Step          Temp          E_pair         E_mol          TotEng         Press     
         0   0.6658952     -6.5523372      0             -5.556269       6.092627     
      6000   0.70387728    -6.5573563      0             -5.5044732      6.2903587    
     12000   0.63041953    -6.5801682      0             -5.6371656      6.0055152    
     18000   0.67369146    -6.4471376      0             -5.4394074      6.7656639    
     24000   0.65720179    -6.5608113      0             -5.577747       6.2107011    
     30000   0.66919943    -6.4357805      0             -5.4347697      6.9880734    
     36000   0.67557826    -6.5605469      0             -5.5499944      6.2361324    
     42000   0.73820094    -6.5466063      0             -5.4423807      6.3360143    
     45000   0.68432328    -6.4689734      0             -5.4453398      6.7875186    
Loop time of 3.85449 on 4 procs for 45000 steps with 360 atoms

Performance: 3026084.972 tau/day, 11674.711 timesteps/s, 4.203 Matom-step/s
99.3% CPU use with 4 MPI tasks x 1 OpenMP threads

MPI task timing breakdown:
Section |  min time  |  avg time  |  max time  |%varavg| %total
---------------------------------------------------------------
Pair    | 2.307      | 2.3568     | 2.3915     |   2.0 | 61.14
Neigh   | 0.24877    | 0.25207    | 0.25615    |   0.7 |  6.54
Comm    | 1.0276     | 1.0719     | 1.1266     |   3.4 | 27.81
Output  | 0.023044   | 0.026643   | 0.03445    |   2.8 |  0.69
Modify  | 0.1085     | 0.10913    | 0.11017    |   0.2 |  2.83
Other   |            | 0.03802    |            |       |  0.99

Nlocal:             90 ave          90 max          90 min
Histogram: 4 0 0 0 0 0 0 0 0 0
Nghost:           1242 ave        1255 max        1235 min
Histogram: 1 0 2 0 0 0 0 0 0 1
Neighs:        5198.25 ave        5315 max        5082 min
Histogram: 1 0 0 0 1 1 0 0 0 1

Total # of neighbors = 20793
Ave neighs/atom = 57.758333
Neighbor list builds = 1473
Dangerous builds = 103
Total wall time: 0:00:03
LAMMPS (15 Sep 2022)
OMP_NUM_THREADS environment is not set. Defaulting to 1 thread. (src/comm.cpp:98)
  using 1 OpenMP thread(s) per MPI task
Reading restart file ...
  restart file = 15 Sep 2022, LAMMPS = 15 Sep 2022
  restoring atom style atomic from restart
  orthogonal box = (0 0 0) to (6.6943295 6.6943295 6.6943295)
  1 by 2 by 2 MPI processor grid
  restoring pair style lj/cut from restart
  360 atoms
  read_restart CPU = 0.030 seconds
Setting up equilibration run
Resetting global fix info from restart file:
  fix style: nvt, fix ID: 1
Generated 0 of 1 mixed pair_coeff terms from geometric mixing rule
All restart file global fix info was re-assigned
Neighbor list info ...
  update: every = 1 steps, delay = 25 steps, check = yes
  max neighbors/atom: 2000, page size: 100000
  master list distance cutoff = 3
  ghost atom cutoff = 3
  binsize = 1.5, bins = 5 5 5
  1 neighbor lists, perpetual/occasional/extra = 1 0 0
  (1) pair lj/cut, perpetual
      attributes: half, newton on
      pair build: half/bin/atomonly/newton
      stencil: half/bin/3d
      bin: standard
Setting up Verlet run ...
  Unit style    : lj
  Current step  : 0
  Time step     : 0.003
Per MPI rank memory allocation (min/avg/max) = 3.138 | 3.138 | 3.139 Mbytes
   Step          Temp          E_pair         E_mol          TotEng         Press     
         0   0.58960392    -6.4854017      0             -5.6034525      6.4768742    
     70000   0.68622606    -6.539853       0             -5.5133731      6.2071634    
     87500   0.6781784     -6.7051876      0             -5.6907457      5.1575375    
Loop time of 7.49078 on 4 procs for 87500 steps with 360 atoms

Performance: 3027723.478 tau/day, 11681.032 timesteps/s, 4.205 Matom-step/s
99.3% CPU use with 4 MPI tasks x 1 OpenMP threads

MPI task timing breakdown:
Section |  min time  |  avg time  |  max time  |%varavg| %total
---------------------------------------------------------------
Pair    | 4.4955     | 4.5687     | 4.6964     |   3.6 | 60.99
Neigh   | 0.46595    | 0.46936    | 0.47644    |   0.6 |  6.27
Comm    | 1.9471     | 2.0773     | 2.1538     |   5.4 | 27.73
Output  | 0.087627   | 0.091608   | 0.10035    |   1.7 |  1.22
Modify  | 0.20843    | 0.2102     | 0.21179    |   0.3 |  2.81
Other   |            | 0.07357    |            |       |  0.98

Nlocal:             90 ave          91 max          88 min
Histogram: 1 0 0 0 0 0 1 0 0 2
Nghost:           1249 ave        1258 max        1244 min
Histogram: 2 0 0 1 0 0 0 0 0 1
Neighs:         5195.5 ave        5313 max        4954 min
Histogram: 1 0 0 0 0 0 1 0 0 2

Total # of neighbors = 20782
Ave neighs/atom = 57.727778
Neighbor list builds = 2753
Dangerous builds = 104
Total wall time: 0:00:07
LAMMPS (15 Sep 2022)
OMP_NUM_THREADS environment is not set. Defaulting to 1 thread. (src/comm.cpp:98)
  using 1 OpenMP thread(s) per MPI task
Reading restart file ...
  restart file = 15 Sep 2022, LAMMPS = 15 Sep 2022
  restoring atom style atomic from restart
  orthogonal box = (0 0 0) to (6.6943295 6.6943295 6.6943295)
  1 by 2 by 2 MPI processor grid
  restoring pair style lj/cut from restart
  360 atoms
  read_restart CPU = 0.017 seconds
Setting up equilibration run
Resetting global fix info from restart file:
  fix style: nvt, fix ID: 1
Generated 0 of 1 mixed pair_coeff terms from geometric mixing rule
All restart file global fix info was re-assigned
Neighbor list info ...
  update: every = 1 steps, delay = 25 steps, check = yes
  max neighbors/atom: 2000, page size: 100000
  master list distance cutoff = 3
  ghost atom cutoff = 3
  binsize = 1.5, bins = 5 5 5
  1 neighbor lists, perpetual/occasional/extra = 1 0 0
  (1) pair lj/cut, perpetual
      attributes: half, newton on
      pair build: half/bin/atomonly/newton
      stencil: half/bin/3d
      bin: standard
Setting up Verlet run ...
  Unit style    : lj
  Current step  : 0
  Time step     : 0.003
Per MPI rank memory allocation (min/avg/max) = 3.14 | 3.14 | 3.14 Mbytes
   Step          Temp          E_pair         E_mol          TotEng         Press     
         0   0.59618546    -6.6688587      0             -5.7770646      5.3676529    
     50000   0.58571024    -6.71056        0             -5.8344351      4.9942593    
    100000   0.61232065    -6.691901       0             -5.7759714      5.2932611    
    150000   0.51101984    -6.70271        0             -5.9383095      5.0375426    
    200000   0.59841701    -6.756765       0             -5.8616329      4.6155228    
    250000   0.59983615    -6.6361312      0             -5.7388763      5.579378     
Loop time of 21.1056 on 4 procs for 250000 steps with 360 atoms

Performance: 3070278.578 tau/day, 11845.211 timesteps/s, 4.264 Matom-step/s
99.5% CPU use with 4 MPI tasks x 1 OpenMP threads

MPI task timing breakdown:
Section |  min time  |  avg time  |  max time  |%varavg| %total
---------------------------------------------------------------
Pair    | 12.894     | 12.984     | 13.07      |   1.8 | 61.52
Neigh   | 1.2643     | 1.2748     | 1.2866     |   0.7 |  6.04
Comm    | 5.8616     | 5.9479     | 6.0493     |   2.9 | 28.18
Output  | 0.062576   | 0.066826   | 0.076275   |   2.1 |  0.32
Modify  | 0.60138    | 0.61344    | 0.62581    |   1.3 |  2.91
Other   |            | 0.2186     |            |       |  1.04

Nlocal:             90 ave          93 max          88 min
Histogram: 1 0 1 0 1 0 0 0 0 1
Nghost:         1241.5 ave        1250 max        1227 min
Histogram: 1 0 0 0 0 0 1 0 0 2
Neighs:        5206.75 ave        5357 max        5104 min
Histogram: 2 0 0 0 0 1 0 0 0 1

Total # of neighbors = 20827
Ave neighs/atom = 57.852778
Neighbor list builds = 7467
Dangerous builds = 142
Total wall time: 0:00:21
LAMMPS (15 Sep 2022)
OMP_NUM_THREADS environment is not set. Defaulting to 1 thread. (src/comm.cpp:98)
  using 1 OpenMP thread(s) per MPI task
Reading restart file ...
  restart file = 15 Sep 2022, LAMMPS = 15 Sep 2022
  restoring atom style atomic from restart
  orthogonal box = (0 0 0) to (6.6943295 6.6943295 6.6943295)
  1 by 2 by 2 MPI processor grid
  restoring pair style lj/cut from restart
  360 atoms
  read_restart CPU = 0.015 seconds
Setting up equilibration run
Resetting global fix info from restart file:
  fix style: nvt, fix ID: 1
Generated 0 of 1 mixed pair_coeff terms from geometric mixing rule
All restart file global fix info was re-assigned
Neighbor list info ...
  update: every = 1 steps, delay = 25 steps, check = yes
  max neighbors/atom: 2000, page size: 100000
  master list distance cutoff = 3
  ghost atom cutoff = 3
  binsize = 1.5, bins = 5 5 5
  1 neighbor lists, perpetual/occasional/extra = 1 0 0
  (1) pair lj/cut, perpetual
      attributes: half, newton on
      pair build: half/bin/atomonly/newton
      stencil: half/bin/3d
      bin: standard
Setting up Verlet run ...
  Unit style    : lj
  Current step  : 0
  Time step     : 0.003
Per MPI rank memory allocation (min/avg/max) = 3.137 | 3.138 | 3.139 Mbytes
   Step          Temp          E_pair         E_mol          TotEng         Press     
         0   0.55481571    -6.7588133      0             -5.9289015      4.7707534    
     30000   0.55079752    -6.8369997      0             -6.0130984      4.2081817    
     60000   0.55706833    -6.7993763      0             -5.9660949      4.4732563    
     90000   0.52207469    -6.8521949      0             -6.0712582      4.0470209    
    120000   0.52523366    -6.788104       0             -6.0024419      4.4851411    
    150000   0.54089449    -6.8388731      0             -6.0297851      4.2823964    
    180000   0.58205476    -6.7830529      0             -5.912396       4.7288935    
    210000   0.54378243    -6.8413608      0             -6.0279529      4.1856181    
    240000   0.55250079    -6.8044878      0             -5.9780387      4.480696     
    270000   0.5301995     -6.8001163      0             -6.0070262      4.503676     
    300000   0.55389952    -6.823584       0             -5.9950426      4.3870974    
    330000   0.53429265    -6.7906182      0             -5.9914054      4.6644549    
    360000   0.53667168    -6.8211688      0             -6.0183974      4.5268895    
    390000   0.52924235    -6.8066524      0             -6.0149941      4.4333143    
    420000   0.51448355    -6.8165298      0             -6.0469482      4.3722979    
    450000   0.52490147    -6.7139079      0             -5.9287428      5.0674593    
    480000   0.55325124    -6.8159133      0             -5.9883416      4.3327222    
    510000   0.55008521    -6.8160819      0             -5.9932462      4.3590469    
    540000   0.54685383    -6.780385       0             -5.9623829      4.534463     
    570000   0.54684857    -6.8005864      0             -5.9825921      4.2598882    
    600000   0.53013241    -6.7815359      0             -5.9885462      4.4255912    
    630000   0.56269416    -6.8265939      0             -5.9848972      4.3753187    
    660000   0.58633353    -6.7705963      0             -5.8935391      4.6143634    
    690000   0.54362148    -6.8125269      0             -5.9993598      4.3934534    
    720000   0.56122948    -6.787865       0             -5.9483593      4.6485243    
    750000   0.5591647     -6.7372369      0             -5.9008197      4.9835769    
Loop time of 63.1423 on 4 procs for 750000 steps with 360 atoms

Performance: 3078761.459 tau/day, 11877.938 timesteps/s, 4.276 Matom-step/s
99.6% CPU use with 4 MPI tasks x 1 OpenMP threads

MPI task timing breakdown:
Section |  min time  |  avg time  |  max time  |%varavg| %total
---------------------------------------------------------------
Pair    | 38.347     | 38.841     | 39.469     |   6.6 | 61.51
Neigh   | 3.5857     | 3.616      | 3.6691     |   1.7 |  5.73
Comm    | 17.455     | 18.101     | 18.626     |  10.1 | 28.67
Output  | 0.038869   | 0.043287   | 0.053058   |   2.7 |  0.07
Modify  | 1.8142     | 1.8583     | 1.8884     |   2.0 |  2.94
Other   |            | 0.6828     |            |       |  1.08

Nlocal:             90 ave          95 max          86 min
Histogram: 1 0 1 0 0 1 0 0 0 1
Nghost:         1248.5 ave        1269 max        1233 min
Histogram: 1 0 1 0 1 0 0 0 0 1
Neighs:           5204 ave        5563 max        4953 min
Histogram: 1 0 0 2 0 0 0 0 0 1

Total # of neighbors = 20816
Ave neighs/atom = 57.822222
Neighbor list builds = 21188
Dangerous builds = 157
Total wall time: 0:01:03
LAMMPS (15 Sep 2022)
OMP_NUM_THREADS environment is not set. Defaulting to 1 thread. (src/comm.cpp:98)
  using 1 OpenMP thread(s) per MPI task
Reading restart file ...
ERROR on proc 0: Cannot open restart file equil/kalj_T0.5_n360_v300_10000000_1.final.lmprestart.10000000: No such file or directory (src/read_restart.cpp:113)
Last command: read_restart ${prevbasename}.final.lmprestart.${steps}
LAMMPS (15 Sep 2022)
OMP_NUM_THREADS environment is not set. Defaulting to 1 thread. (src/comm.cpp:98)
  using 1 OpenMP thread(s) per MPI task
Reading restart file ...
ERROR on proc 0: Cannot open restart file equil/kalj_T0.475_n360_v300_30000000_1.final.lmprestart.30000000: No such file or directory (src/read_restart.cpp:113)
Last command: read_restart ${prevbasename}.final.lmprestart.${steps}
Production runs completed.
