LAMMPS (15 Sep 2022)
OMP_NUM_THREADS environment is not set. Defaulting to 1 thread. (src/comm.cpp:98)
  using 1 OpenMP thread(s) per MPI task
Reading restart file ...
  restart file = 15 Sep 2022, LAMMPS = 15 Sep 2022
  restoring atom style atomic from restart
  orthogonal box = (0 0 0) to (6.6943295 6.6943295 6.6943295)
  1 by 2 by 2 MPI processor grid
  restoring pair style lj/cut from restart
  360 atoms
  read_restart CPU = 0.076 seconds
Setting up equilibration run
Resetting global fix info from restart file:
  fix style: nvt, fix ID: 1
Generated 0 of 1 mixed pair_coeff terms from geometric mixing rule
All restart file global fix info was re-assigned
Neighbor list info ...
  update: every = 1 steps, delay = 20 steps, check = yes
  max neighbors/atom: 2000, page size: 100000
  master list distance cutoff = 3
  ghost atom cutoff = 3
  binsize = 1.5, bins = 5 5 5
  1 neighbor lists, perpetual/occasional/extra = 1 0 0
  (1) pair lj/cut, perpetual
      attributes: half, newton on
      pair build: half/bin/atomonly/newton
      stencil: half/bin/3d
      bin: standard
Setting up Verlet run ...
  Unit style    : lj
  Current step  : 0
  Time step     : 0.002
Per MPI rank memory allocation (min/avg/max) = 3.139 | 3.139 | 3.139 Mbytes
   Step          Temp          E_pair         E_mol          TotEng         Press     
         0   1.5214001     -5.1923617      0             -2.9166007      15.468956    
      1000   1.5243401     -5.1680822      0             -2.8879235      15.677796    
      2000   1.6907715     -5.1970825      0             -2.6679702      15.738205    
      2500   1.5282635     -5.3524107      0             -3.0663833      14.550756    
Loop time of 0.237013 on 4 procs for 2500 steps with 360 atoms

Performance: 1822684.674 tau/day, 10547.944 timesteps/s, 3.797 Matom-step/s
98.1% CPU use with 4 MPI tasks x 1 OpenMP threads

MPI task timing breakdown:
Section |  min time  |  avg time  |  max time  |%varavg| %total
---------------------------------------------------------------
Pair    | 0.12943    | 0.13311    | 0.13678    |   0.9 | 56.16
Neigh   | 0.014548   | 0.014877   | 0.015236   |   0.3 |  6.28
Comm    | 0.058312   | 0.065778   | 0.071053   |   1.9 | 27.75
Output  | 0.010195   | 0.012803   | 0.018409   |   2.9 |  5.40
Modify  | 0.0060387  | 0.0062218  | 0.0064606  |   0.2 |  2.63
Other   |            | 0.004221   |            |       |  1.78

Nlocal:             90 ave          93 max          87 min
Histogram: 1 0 0 0 0 2 0 0 0 1
Nghost:           1230 ave        1250 max        1211 min
Histogram: 1 1 0 0 0 0 0 1 0 1
Neighs:         5197.5 ave        5231 max        5165 min
Histogram: 1 0 0 1 0 1 0 0 0 1

Total # of neighbors = 20790
Ave neighs/atom = 57.75
Neighbor list builds = 86
Dangerous builds = 0
Total wall time: 0:00:00
LAMMPS (15 Sep 2022)
OMP_NUM_THREADS environment is not set. Defaulting to 1 thread. (src/comm.cpp:98)
  using 1 OpenMP thread(s) per MPI task
Reading restart file ...
  restart file = 15 Sep 2022, LAMMPS = 15 Sep 2022
  restoring atom style atomic from restart
  orthogonal box = (0 0 0) to (6.6943295 6.6943295 6.6943295)
  1 by 2 by 2 MPI processor grid
  restoring pair style lj/cut from restart
  360 atoms
  read_restart CPU = 0.027 seconds
Setting up equilibration run
Resetting global fix info from restart file:
  fix style: nvt, fix ID: 1
Generated 0 of 1 mixed pair_coeff terms from geometric mixing rule
All restart file global fix info was re-assigned
Neighbor list info ...
  update: every = 1 steps, delay = 20 steps, check = yes
  max neighbors/atom: 2000, page size: 100000
  master list distance cutoff = 3
  ghost atom cutoff = 3
  binsize = 1.5, bins = 5 5 5
  1 neighbor lists, perpetual/occasional/extra = 1 0 0
  (1) pair lj/cut, perpetual
      attributes: half, newton on
      pair build: half/bin/atomonly/newton
      stencil: half/bin/3d
      bin: standard
Setting up Verlet run ...
  Unit style    : lj
  Current step  : 0
  Time step     : 0.002
Per MPI rank memory allocation (min/avg/max) = 3.138 | 3.138 | 3.138 Mbytes
   Step          Temp          E_pair         E_mol          TotEng         Press     
         0   1.0108632     -6.013634       0             -4.5015511      9.960712     
      2000   0.97791638    -5.8804359      0             -4.417636       10.84871     
      4000   0.95186572    -6.0468417      0             -4.6230092      9.6139793    
      6000   0.97886946    -6.0562907      0             -4.5920652      9.5700671    
      8000   1.0168331     -5.9534857      0             -4.4324728      10.274187    
     10000   1.0837255     -5.9524617      0             -4.331389       10.462047    
     12000   0.95832388    -5.9913338      0             -4.557841       10.180617    
     12500   1.0406225     -6.1020685      0             -4.5454707      9.4486959    
Loop time of 1.06526 on 4 procs for 12500 steps with 360 atoms

Performance: 2027665.477 tau/day, 11734.175 timesteps/s, 4.224 Matom-step/s
99.1% CPU use with 4 MPI tasks x 1 OpenMP threads

MPI task timing breakdown:
Section |  min time  |  avg time  |  max time  |%varavg| %total
---------------------------------------------------------------
Pair    | 0.64306    | 0.65286    | 0.66676    |   1.1 | 61.29
Neigh   | 0.05799    | 0.058789   | 0.060173   |   0.3 |  5.52
Comm    | 0.27832    | 0.29029    | 0.30039    |   1.5 | 27.25
Output  | 0.014447   | 0.017351   | 0.023563   |   2.8 |  1.63
Modify  | 0.028157   | 0.030154   | 0.031798   |   0.9 |  2.83
Other   |            | 0.01582    |            |       |  1.48

Nlocal:             90 ave          92 max          88 min
Histogram: 1 0 1 0 0 0 0 1 0 1
Nghost:           1238 ave        1243 max        1230 min
Histogram: 1 0 0 0 0 0 1 1 0 1
Neighs:        5188.25 ave        5370 max        5014 min
Histogram: 1 0 0 0 1 1 0 0 0 1

Total # of neighbors = 20753
Ave neighs/atom = 57.647222
Neighbor list builds = 343
Dangerous builds = 0
Total wall time: 0:00:01
LAMMPS (15 Sep 2022)
OMP_NUM_THREADS environment is not set. Defaulting to 1 thread. (src/comm.cpp:98)
  using 1 OpenMP thread(s) per MPI task
Reading restart file ...
  restart file = 15 Sep 2022, LAMMPS = 15 Sep 2022
  restoring atom style atomic from restart
  orthogonal box = (0 0 0) to (6.6943295 6.6943295 6.6943295)
  1 by 2 by 2 MPI processor grid
  restoring pair style lj/cut from restart
  360 atoms
  read_restart CPU = 0.016 seconds
Setting up equilibration run
Resetting global fix info from restart file:
  fix style: nvt, fix ID: 1
Generated 0 of 1 mixed pair_coeff terms from geometric mixing rule
All restart file global fix info was re-assigned
Neighbor list info ...
  update: every = 1 steps, delay = 25 steps, check = yes
  max neighbors/atom: 2000, page size: 100000
  master list distance cutoff = 3
  ghost atom cutoff = 3
  binsize = 1.5, bins = 5 5 5
  1 neighbor lists, perpetual/occasional/extra = 1 0 0
  (1) pair lj/cut, perpetual
      attributes: half, newton on
      pair build: half/bin/atomonly/newton
      stencil: half/bin/3d
      bin: standard
Setting up Verlet run ...
  Unit style    : lj
  Current step  : 0
  Time step     : 0.002
Per MPI rank memory allocation (min/avg/max) = 3.137 | 3.137 | 3.138 Mbytes
   Step          Temp          E_pair         E_mol          TotEng         Press     
         0   0.86682428    -6.268331       0             -4.9717064      8.0526361    
      5000   0.85363894    -6.1692417      0             -4.8923402      9.0262436    
     10000   1.0349042     -6.1467294      0             -4.5986852      9.2150579    
     15000   0.87158815    -6.1693719      0             -4.8656213      8.8613711    
     20000   0.91302236    -6.1810234      0             -4.8152942      8.7471884    
     25000   0.95578697    -6.2949559      0             -4.8652579      7.9824722    
     30000   0.84109698    -6.1574803      0             -4.8993394      8.6426033    
     35000   0.89461444    -6.1811788      0             -4.8429847      8.7681104    
     37500   0.88314073    -6.1624577      0             -4.8414263      8.809592     
Loop time of 3.11173 on 4 procs for 37500 steps with 360 atoms

Performance: 2082441.899 tau/day, 12051.168 timesteps/s, 4.338 Matom-step/s
99.5% CPU use with 4 MPI tasks x 1 OpenMP threads

MPI task timing breakdown:
Section |  min time  |  avg time  |  max time  |%varavg| %total
---------------------------------------------------------------
Pair    | 1.9004     | 1.9452     | 1.9795     |   2.3 | 62.51
Neigh   | 0.16214    | 0.16416    | 0.16685    |   0.4 |  5.28
Comm    | 0.82682    | 0.85831    | 0.90395    |   3.3 | 27.58
Output  | 0.015921   | 0.018884   | 0.025278   |   2.7 |  0.61
Modify  | 0.084521   | 0.087642   | 0.089457   |   0.6 |  2.82
Other   |            | 0.03757    |            |       |  1.21

Nlocal:             90 ave          93 max          88 min
Histogram: 2 0 0 0 0 0 1 0 0 1
Nghost:         1250.5 ave        1279 max        1220 min
Histogram: 1 0 1 0 0 0 0 0 1 1
Neighs:        5195.75 ave        5409 max        4976 min
Histogram: 1 1 0 0 0 0 0 0 1 1

Total # of neighbors = 20783
Ave neighs/atom = 57.730556
Neighbor list builds = 962
Dangerous builds = 0
Total wall time: 0:00:03
LAMMPS (15 Sep 2022)
OMP_NUM_THREADS environment is not set. Defaulting to 1 thread. (src/comm.cpp:98)
  using 1 OpenMP thread(s) per MPI task
Reading restart file ...
  restart file = 15 Sep 2022, LAMMPS = 15 Sep 2022
  restoring atom style atomic from restart
  orthogonal box = (0 0 0) to (6.6943295 6.6943295 6.6943295)
  1 by 2 by 2 MPI processor grid
  restoring pair style lj/cut from restart
  360 atoms
  read_restart CPU = 0.009 seconds
Setting up equilibration run
Resetting global fix info from restart file:
  fix style: nvt, fix ID: 1
Generated 0 of 1 mixed pair_coeff terms from geometric mixing rule
All restart file global fix info was re-assigned
Neighbor list info ...
  update: every = 1 steps, delay = 25 steps, check = yes
  max neighbors/atom: 2000, page size: 100000
  master list distance cutoff = 3
  ghost atom cutoff = 3
  binsize = 1.5, bins = 5 5 5
  1 neighbor lists, perpetual/occasional/extra = 1 0 0
  (1) pair lj/cut, perpetual
      attributes: half, newton on
      pair build: half/bin/atomonly/newton
      stencil: half/bin/3d
      bin: standard
Setting up Verlet run ...
  Unit style    : lj
  Current step  : 0
  Time step     : 0.002
Per MPI rank memory allocation (min/avg/max) = 3.136 | 3.136 | 3.137 Mbytes
   Step          Temp          E_pair         E_mol          TotEng         Press     
         0   0.81376773    -6.300452       0             -5.0831911      7.8028198    
      5000   0.80760317    -6.1846958      0             -4.9766561      8.6196636    
     10000   0.84384236    -6.267293       0             -5.0050455      8.2774864    
     15000   0.8056096     -6.314924       0             -5.1098663      7.7220892    
     20000   0.84004648    -6.3399688      0             -5.0833993      7.7683076    
     25000   0.75589502    -6.4795467      0             -5.3488537      6.7477572    
     30000   0.76499011    -6.4453924      0             -5.3010947      6.8487794    
     35000   0.7649391     -6.3955619      0             -5.2513405      7.2554966    
     37500   0.80734116    -6.381291       0             -5.1736432      7.4939719    
Loop time of 3.09358 on 4 procs for 37500 steps with 360 atoms

Performance: 2094657.775 tau/day, 12121.862 timesteps/s, 4.364 Matom-step/s
99.5% CPU use with 4 MPI tasks x 1 OpenMP threads

MPI task timing breakdown:
Section |  min time  |  avg time  |  max time  |%varavg| %total
---------------------------------------------------------------
Pair    | 1.8738     | 1.9334     | 1.9681     |   2.6 | 62.50
Neigh   | 0.14924    | 0.15174    | 0.15469    |   0.6 |  4.91
Comm    | 0.8186     | 0.859      | 0.92177    |   4.3 | 27.77
Output  | 0.016155   | 0.019185   | 0.02571    |   2.8 |  0.62
Modify  | 0.089012   | 0.090118   | 0.091146   |   0.3 |  2.91
Other   |            | 0.04012    |            |       |  1.30

Nlocal:             90 ave          92 max          87 min
Histogram: 1 0 0 0 1 0 0 0 0 2
Nghost:        1240.75 ave        1267 max        1209 min
Histogram: 1 0 0 0 0 1 1 0 0 1
Neighs:           5189 ave        5452 max        5081 min
Histogram: 2 1 0 0 0 0 0 0 0 1

Total # of neighbors = 20756
Ave neighs/atom = 57.655556
Neighbor list builds = 889
Dangerous builds = 0
Total wall time: 0:00:03
LAMMPS (15 Sep 2022)
OMP_NUM_THREADS environment is not set. Defaulting to 1 thread. (src/comm.cpp:98)
  using 1 OpenMP thread(s) per MPI task
Reading restart file ...
  restart file = 15 Sep 2022, LAMMPS = 15 Sep 2022
  restoring atom style atomic from restart
  orthogonal box = (0 0 0) to (6.6943295 6.6943295 6.6943295)
  1 by 2 by 2 MPI processor grid
  restoring pair style lj/cut from restart
  360 atoms
  read_restart CPU = 0.017 seconds
Setting up equilibration run
Resetting global fix info from restart file:
  fix style: nvt, fix ID: 1
Generated 0 of 1 mixed pair_coeff terms from geometric mixing rule
All restart file global fix info was re-assigned
Neighbor list info ...
  update: every = 1 steps, delay = 25 steps, check = yes
  max neighbors/atom: 2000, page size: 100000
  master list distance cutoff = 3
  ghost atom cutoff = 3
  binsize = 1.5, bins = 5 5 5
  1 neighbor lists, perpetual/occasional/extra = 1 0 0
  (1) pair lj/cut, perpetual
      attributes: half, newton on
      pair build: half/bin/atomonly/newton
      stencil: half/bin/3d
      bin: standard
Setting up Verlet run ...
  Unit style    : lj
  Current step  : 0
  Time step     : 0.003
Per MPI rank memory allocation (min/avg/max) = 3.139 | 3.139 | 3.139 Mbytes
   Step          Temp          E_pair         E_mol          TotEng         Press     
         0   0.6658952     -6.5523372      0             -5.556269       6.092627     
      6000   0.70387728    -6.5573563      0             -5.5044732      6.2903587    
     12000   0.63041953    -6.5801682      0             -5.6371656      6.0055152    
     18000   0.67369146    -6.4471376      0             -5.4394074      6.7656639    
     24000   0.65720179    -6.5608113      0             -5.577747       6.2107011    
     30000   0.66919943    -6.4357805      0             -5.4347697      6.9880734    
     36000   0.67557826    -6.5605469      0             -5.5499944      6.2361324    
     42000   0.73820094    -6.5466063      0             -5.4423807      6.3360143    
     45000   0.68432328    -6.4689734      0             -5.4453398      6.7875186    
Loop time of 3.83022 on 4 procs for 45000 steps with 360 atoms

Performance: 3045255.428 tau/day, 11748.671 timesteps/s, 4.230 Matom-step/s
99.5% CPU use with 4 MPI tasks x 1 OpenMP threads

MPI task timing breakdown:
Section |  min time  |  avg time  |  max time  |%varavg| %total
---------------------------------------------------------------
Pair    | 2.308      | 2.3632     | 2.4385     |   3.1 | 61.70
Neigh   | 0.2482     | 0.25127    | 0.25634    |   0.7 |  6.56
Comm    | 0.96815    | 1.0519     | 1.1096     |   5.1 | 27.46
Output  | 0.016248   | 0.019228   | 0.02562    |   2.7 |  0.50
Modify  | 0.10631    | 0.10757    | 0.10893    |   0.3 |  2.81
Other   |            | 0.03708    |            |       |  0.97

Nlocal:             90 ave          90 max          90 min
Histogram: 4 0 0 0 0 0 0 0 0 0
Nghost:           1242 ave        1255 max        1235 min
Histogram: 1 0 2 0 0 0 0 0 0 1
Neighs:        5198.25 ave        5315 max        5082 min
Histogram: 1 0 0 0 1 1 0 0 0 1

Total # of neighbors = 20793
Ave neighs/atom = 57.758333
Neighbor list builds = 1473
Dangerous builds = 103
Total wall time: 0:00:03
LAMMPS (15 Sep 2022)
OMP_NUM_THREADS environment is not set. Defaulting to 1 thread. (src/comm.cpp:98)
  using 1 OpenMP thread(s) per MPI task
Reading restart file ...
  restart file = 15 Sep 2022, LAMMPS = 15 Sep 2022
  restoring atom style atomic from restart
  orthogonal box = (0 0 0) to (6.6943295 6.6943295 6.6943295)
  1 by 2 by 2 MPI processor grid
  restoring pair style lj/cut from restart
  360 atoms
  read_restart CPU = 0.014 seconds
Setting up equilibration run
Resetting global fix info from restart file:
  fix style: nvt, fix ID: 1
Generated 0 of 1 mixed pair_coeff terms from geometric mixing rule
All restart file global fix info was re-assigned
Neighbor list info ...
  update: every = 1 steps, delay = 25 steps, check = yes
  max neighbors/atom: 2000, page size: 100000
  master list distance cutoff = 3
  ghost atom cutoff = 3
  binsize = 1.5, bins = 5 5 5
  1 neighbor lists, perpetual/occasional/extra = 1 0 0
  (1) pair lj/cut, perpetual
      attributes: half, newton on
      pair build: half/bin/atomonly/newton
      stencil: half/bin/3d
      bin: standard
Setting up Verlet run ...
  Unit style    : lj
  Current step  : 0
  Time step     : 0.003
Per MPI rank memory allocation (min/avg/max) = 3.138 | 3.138 | 3.139 Mbytes
   Step          Temp          E_pair         E_mol          TotEng         Press     
         0   0.58960392    -6.4854017      0             -5.6034525      6.4768742    
     70000   0.68622606    -6.539853       0             -5.5133731      6.2071634    
     87500   0.6781784     -6.7051876      0             -5.6907457      5.1575375    
Loop time of 7.32744 on 4 procs for 87500 steps with 360 atoms

Performance: 3095216.381 tau/day, 11941.421 timesteps/s, 4.299 Matom-step/s
99.6% CPU use with 4 MPI tasks x 1 OpenMP threads

MPI task timing breakdown:
Section |  min time  |  avg time  |  max time  |%varavg| %total
---------------------------------------------------------------
Pair    | 4.5028     | 4.5616     | 4.6608     |   2.8 | 62.25
Neigh   | 0.46544    | 0.4686     | 0.47541    |   0.6 |  6.40
Comm    | 1.8962     | 1.9962     | 2.0613     |   4.3 | 27.24
Output  | 0.018604   | 0.021731   | 0.028449   |   2.7 |  0.30
Modify  | 0.20476    | 0.20813    | 0.21282    |   0.7 |  2.84
Other   |            | 0.07111    |            |       |  0.97

Nlocal:             90 ave          91 max          88 min
Histogram: 1 0 0 0 0 0 1 0 0 2
Nghost:           1249 ave        1258 max        1244 min
Histogram: 2 0 0 1 0 0 0 0 0 1
Neighs:         5195.5 ave        5313 max        4954 min
Histogram: 1 0 0 0 0 0 1 0 0 2

Total # of neighbors = 20782
Ave neighs/atom = 57.727778
Neighbor list builds = 2753
Dangerous builds = 104
Total wall time: 0:00:07
LAMMPS (15 Sep 2022)
OMP_NUM_THREADS environment is not set. Defaulting to 1 thread. (src/comm.cpp:98)
  using 1 OpenMP thread(s) per MPI task
Reading restart file ...
  restart file = 15 Sep 2022, LAMMPS = 15 Sep 2022
  restoring atom style atomic from restart
  orthogonal box = (0 0 0) to (6.6943295 6.6943295 6.6943295)
  1 by 2 by 2 MPI processor grid
  restoring pair style lj/cut from restart
  360 atoms
  read_restart CPU = 0.026 seconds
Setting up equilibration run
Resetting global fix info from restart file:
  fix style: nvt, fix ID: 1
Generated 0 of 1 mixed pair_coeff terms from geometric mixing rule
All restart file global fix info was re-assigned
Neighbor list info ...
  update: every = 1 steps, delay = 25 steps, check = yes
  max neighbors/atom: 2000, page size: 100000
  master list distance cutoff = 3
  ghost atom cutoff = 3
  binsize = 1.5, bins = 5 5 5
  1 neighbor lists, perpetual/occasional/extra = 1 0 0
  (1) pair lj/cut, perpetual
      attributes: half, newton on
      pair build: half/bin/atomonly/newton
      stencil: half/bin/3d
      bin: standard
Setting up Verlet run ...
  Unit style    : lj
  Current step  : 0
  Time step     : 0.003
Per MPI rank memory allocation (min/avg/max) = 3.14 | 3.14 | 3.14 Mbytes
   Step          Temp          E_pair         E_mol          TotEng         Press     
         0   0.59618546    -6.6688587      0             -5.7770646      5.3676529    
     50000   0.58571024    -6.71056        0             -5.8344351      4.9942593    
    100000   0.61232065    -6.691901       0             -5.7759714      5.2932611    
    150000   0.51101984    -6.70271        0             -5.9383095      5.0375426    
    200000   0.59841701    -6.756765       0             -5.8616329      4.6155228    
    250000   0.59983615    -6.6361312      0             -5.7388763      5.579378     
Loop time of 21.4468 on 4 procs for 250000 steps with 360 atoms

Performance: 3021427.639 tau/day, 11656.742 timesteps/s, 4.196 Matom-step/s
99.4% CPU use with 4 MPI tasks x 1 OpenMP threads

MPI task timing breakdown:
Section |  min time  |  avg time  |  max time  |%varavg| %total
---------------------------------------------------------------
Pair    | 12.798     | 13.096     | 13.508     |   7.7 | 61.06
Neigh   | 1.2619     | 1.285      | 1.3279     |   2.3 |  5.99
Comm    | 5.5489     | 5.9892     | 6.3027     |  12.2 | 27.93
Output  | 0.24519    | 0.24906    | 0.25746    |   1.0 |  1.16
Modify  | 0.60044    | 0.61286    | 0.62423    |   1.1 |  2.86
Other   |            | 0.2142     |            |       |  1.00

Nlocal:             90 ave          93 max          88 min
Histogram: 1 0 1 0 1 0 0 0 0 1
Nghost:         1241.5 ave        1250 max        1227 min
Histogram: 1 0 0 0 0 0 1 0 0 2
Neighs:        5206.75 ave        5357 max        5104 min
Histogram: 2 0 0 0 0 1 0 0 0 1

Total # of neighbors = 20827
Ave neighs/atom = 57.852778
Neighbor list builds = 7467
Dangerous builds = 142
Total wall time: 0:00:21
LAMMPS (15 Sep 2022)
OMP_NUM_THREADS environment is not set. Defaulting to 1 thread. (src/comm.cpp:98)
  using 1 OpenMP thread(s) per MPI task
Reading restart file ...
  restart file = 15 Sep 2022, LAMMPS = 15 Sep 2022
  restoring atom style atomic from restart
  orthogonal box = (0 0 0) to (6.6943295 6.6943295 6.6943295)
  1 by 2 by 2 MPI processor grid
  restoring pair style lj/cut from restart
  360 atoms
  read_restart CPU = 0.039 seconds
Setting up equilibration run
Resetting global fix info from restart file:
  fix style: nvt, fix ID: 1
Generated 0 of 1 mixed pair_coeff terms from geometric mixing rule
All restart file global fix info was re-assigned
Neighbor list info ...
  update: every = 1 steps, delay = 25 steps, check = yes
  max neighbors/atom: 2000, page size: 100000
  master list distance cutoff = 3
  ghost atom cutoff = 3
  binsize = 1.5, bins = 5 5 5
  1 neighbor lists, perpetual/occasional/extra = 1 0 0
  (1) pair lj/cut, perpetual
      attributes: half, newton on
      pair build: half/bin/atomonly/newton
      stencil: half/bin/3d
      bin: standard
Setting up Verlet run ...
  Unit style    : lj
  Current step  : 0
  Time step     : 0.003
Per MPI rank memory allocation (min/avg/max) = 3.137 | 3.138 | 3.139 Mbytes
   Step          Temp          E_pair         E_mol          TotEng         Press     
         0   0.55481571    -6.7588133      0             -5.9289015      4.7707534    
     30000   0.55079752    -6.8369997      0             -6.0130984      4.2081817    
     60000   0.55706833    -6.7993763      0             -5.9660949      4.4732563    
     90000   0.52207469    -6.8521949      0             -6.0712582      4.0470209    
    120000   0.52523366    -6.788104       0             -6.0024419      4.4851411    
    150000   0.54089449    -6.8388731      0             -6.0297851      4.2823964    
    180000   0.58205476    -6.7830529      0             -5.912396       4.7288935    
    210000   0.54378243    -6.8413608      0             -6.0279529      4.1856181    
    240000   0.55250079    -6.8044878      0             -5.9780387      4.480696     
    270000   0.5301995     -6.8001163      0             -6.0070262      4.503676     
    300000   0.55389952    -6.823584       0             -5.9950426      4.3870974    
    330000   0.53429265    -6.7906182      0             -5.9914054      4.6644549    
    360000   0.53667168    -6.8211688      0             -6.0183974      4.5268895    
    390000   0.52924235    -6.8066524      0             -6.0149941      4.4333143    
    420000   0.51448355    -6.8165298      0             -6.0469482      4.3722979    
    450000   0.52490147    -6.7139079      0             -5.9287428      5.0674593    
    480000   0.55325124    -6.8159133      0             -5.9883416      4.3327222    
    510000   0.55008521    -6.8160819      0             -5.9932462      4.3590469    
    540000   0.54685383    -6.780385       0             -5.9623829      4.534463     
    570000   0.54684857    -6.8005864      0             -5.9825921      4.2598882    
    600000   0.53013241    -6.7815359      0             -5.9885462      4.4255912    
    630000   0.56269416    -6.8265939      0             -5.9848972      4.3753187    
    660000   0.58633353    -6.7705963      0             -5.8935391      4.6143634    
    690000   0.54362148    -6.8125269      0             -5.9993598      4.3934534    
    720000   0.56122948    -6.787865       0             -5.9483593      4.6485243    
    750000   0.5591647     -6.7372369      0             -5.9008197      4.9835769    
Loop time of 62.4443 on 4 procs for 750000 steps with 360 atoms

Performance: 3113175.045 tau/day, 12010.706 timesteps/s, 4.324 Matom-step/s
99.6% CPU use with 4 MPI tasks x 1 OpenMP threads

MPI task timing breakdown:
Section |  min time  |  avg time  |  max time  |%varavg| %total
---------------------------------------------------------------
Pair    | 38.327     | 38.966     | 40.322     |  12.7 | 62.40
Neigh   | 3.5776     | 3.6022     | 3.6543     |   1.6 |  5.77
Comm    | 15.969     | 17.319     | 17.997     |  19.1 | 27.74
Output  | 0.074767   | 0.078998   | 0.08843    |   2.0 |  0.13
Modify  | 1.7569     | 1.8163     | 1.894      |   3.9 |  2.91
Other   |            | 0.661      |            |       |  1.06

Nlocal:             90 ave          95 max          86 min
Histogram: 1 0 1 0 0 1 0 0 0 1
Nghost:         1248.5 ave        1269 max        1233 min
Histogram: 1 0 1 0 1 0 0 0 0 1
Neighs:           5204 ave        5563 max        4953 min
Histogram: 1 0 0 2 0 0 0 0 0 1

Total # of neighbors = 20816
Ave neighs/atom = 57.822222
Neighbor list builds = 21188
Dangerous builds = 157
Total wall time: 0:01:02
LAMMPS (15 Sep 2022)
OMP_NUM_THREADS environment is not set. Defaulting to 1 thread. (src/comm.cpp:98)
  using 1 OpenMP thread(s) per MPI task
Reading restart file ...
  restart file = 15 Sep 2022, LAMMPS = 15 Sep 2022
  restoring atom style atomic from restart
  orthogonal box = (0 0 0) to (6.6943295 6.6943295 6.6943295)
  1 by 2 by 2 MPI processor grid
  restoring pair style lj/cut from restart
  360 atoms
  read_restart CPU = 0.018 seconds
Setting up equilibration run
Resetting global fix info from restart file:
  fix style: nvt, fix ID: 1
Generated 0 of 1 mixed pair_coeff terms from geometric mixing rule
All restart file global fix info was re-assigned
Neighbor list info ...
  update: every = 1 steps, delay = 25 steps, check = yes
  max neighbors/atom: 2000, page size: 100000
  master list distance cutoff = 3
  ghost atom cutoff = 3
  binsize = 1.5, bins = 5 5 5
  1 neighbor lists, perpetual/occasional/extra = 1 0 0
  (1) pair lj/cut, perpetual
      attributes: half, newton on
      pair build: half/bin/atomonly/newton
      stencil: half/bin/3d
      bin: standard
Setting up Verlet run ...
  Unit style    : lj
  Current step  : 0
  Time step     : 0.003
Per MPI rank memory allocation (min/avg/max) = 3.14 | 3.14 | 3.141 Mbytes
   Step          Temp          E_pair         E_mol          TotEng         Press     
         0   0.4879122     -6.8919193      0             -6.162084       3.7676154    
    100000   0.47374326    -6.9065108      0             -6.1978698      3.6703474    
    200000   0.50112145    -6.8896327      0             -6.1400386      3.8854488    
    300000   0.46898091    -6.9253636      0             -6.2238463      3.7189715    
    400000   0.50635877    -6.8473423      0             -6.089914       4.0721932    
    500000   0.55188657    -6.9147295      0             -6.0891992      3.8154119    
    600000   0.51449048    -6.9194878      0             -6.1498958      3.6196215    
    700000   0.50945152    -6.8208856      0             -6.0588311      4.3628561    
    800000   0.56901053    -6.8186077      0             -5.9674627      4.4999509    
    900000   0.4836583     -6.8540791      0             -6.1306069      3.9489652    
   1000000   0.51074364    -6.9088817      0             -6.1448943      4.0381322    
   1100000   0.50638541    -6.8973583      0             -6.1398902      3.8147393    
   1200000   0.49800862    -6.8001334      0             -6.0551955      4.489064     
   1300000   0.51054242    -6.8260166      0             -6.0623302      4.2100905    
   1400000   0.49545219    -6.9138008      0             -6.1726869      3.6851741    
   1500000   0.49072485    -6.8623867      0             -6.1283441      4.1137688    
   1600000   0.50129446    -6.9149603      0             -6.1651074      3.6136925    
   1700000   0.49787371    -6.9622729      0             -6.2175368      3.3614039    
   1800000   0.5148343     -6.8856926      0             -6.1155863      4.070772     
   1900000   0.45986697    -6.8872969      0             -6.1994125      4.0001743    
   2000000   0.54744989    -6.937234       0             -6.1183402      3.6175132    
   2100000   0.4676234     -6.9363699      0             -6.2368832      3.5088379    
   2200000   0.51196149    -6.8810369      0             -6.1152278      3.9827547    
   2300000   0.50384221    -6.8851142      0             -6.1314502      3.9777626    
   2400000   0.49491059    -6.9798511      0             -6.2395474      3.2665936    
   2500000   0.50646175    -6.8547288      0             -6.0971465      4.0825354    
Loop time of 206.059 on 4 procs for 2500000 steps with 360 atoms

Performance: 3144730.644 tau/day, 12132.448 timesteps/s, 4.368 Matom-step/s
99.7% CPU use with 4 MPI tasks x 1 OpenMP threads

MPI task timing breakdown:
Section |  min time  |  avg time  |  max time  |%varavg| %total
---------------------------------------------------------------
Pair    | 126.46     | 129.25     | 132.64     |  22.5 | 62.73
Neigh   | 11.111     | 11.305     | 11.47      |   4.5 |  5.49
Comm    | 53.832     | 57.273     | 60.211     |  34.5 | 27.79
Output  | 0.041068   | 0.045332   | 0.054795   |   2.6 |  0.02
Modify  | 5.8058     | 5.925      | 6.0971     |   4.7 |  2.88
Other   |            | 2.259      |            |       |  1.10

Nlocal:             90 ave          95 max          87 min
Histogram: 1 1 0 1 0 0 0 0 0 1
Nghost:         1234.5 ave        1255 max        1214 min
Histogram: 1 0 0 1 0 0 1 0 0 1
Neighs:           5181 ave        5440 max        4938 min
Histogram: 1 0 0 1 0 0 1 0 0 1

Total # of neighbors = 20724
Ave neighs/atom = 57.566667
Neighbor list builds = 66398
Dangerous builds = 150
Total wall time: 0:03:26
LAMMPS (15 Sep 2022)
OMP_NUM_THREADS environment is not set. Defaulting to 1 thread. (src/comm.cpp:98)
  using 1 OpenMP thread(s) per MPI task
Reading restart file ...
ERROR on proc 0: Cannot open restart file equil/kalj_T0.475_n360_v300_30000000_1.final.lmprestart.30000000: No such file or directory (src/read_restart.cpp:113)
Last command: read_restart ${prevbasename}.final.lmprestart.${steps}
--------------------------------------------------------------------------
MPI_ABORT was invoked on rank 0 in communicator MPI_COMM_WORLD
with errorcode 1.

NOTE: invoking MPI_ABORT causes Open MPI to kill all MPI processes.
You may or may not see output from other processes, depending on
exactly when Open MPI kills them.
--------------------------------------------------------------------------
[warn] Epoll MOD(1) on fd 27 failed.  Old events were 6; read change was 0 (none); write change was 2 (del): Bad file descriptor
[warn] Epoll MOD(4) on fd 27 failed.  Old events were 6; read change was 2 (del); write change was 0 (none): Bad file descriptor
Production runs completed.
