ITEM: TIMESTEP
100000
ITEM: NUMBER OF ATOMS
2048
ITEM: BOX BOUNDS pp pp pp
0.0000000000000000e+00 1.2302095357258066e+01
0.0000000000000000e+00 1.2302095357258066e+01
0.0000000000000000e+00 1.2302095357258066e+01
ITEM: ATOMS id type xs ys zs
48 1 0.12288 0.0477838 0.0281399
878 1 0.217761 0.0289481 0.0273649
916 1 0.306286 0.0406068 0.0466577
1535 1 0.0396949 0.0556705 0.0156406
1750 1 0.384882 0.0600489 0.0464854
745 1 0.462133 0.0984549 0.051859
724 1 0.109205 0.126726 0.0496194
2047 1 0.18281 0.161202 0.0381232
1303 1 0.399347 0.132644 0.0208382
527 1 0.0459138 0.168089 0.0304245
1416 1 0.120866 0.20108 0.0116993
729 1 0.277713 0.199287 0.0432955
62 1 0.197717 0.235413 0.0268776
1325 1 0.387654 0.255358 0.0211108
318 1 0.497361 0.258327 0.0348222
453 1 0.0235589 0.293387 0.013007
1433 1 0.103055 0.319265 0.00186136
535 1 0.300595 0.278373 0.0397895
956 1 0.355463 0.338164 0.042412
27 1 0.497812 0.336708 0.0346018
1906 1 0.0794971 0.416394 0.0479313
786 1 0.20706 0.412708 0.0263222
1069 1 0.402612 0.399793 0.0205166
241 1 0.0141003 0.456704 0.0498662
1560 1 0.137858 0.484898 0.00934798
1198 1 0.212226 0.492778 0.0498405
988 1 0.397238 0.492054 0.0219495
1087 1 0.458851 0.450326 0.00109002
1784 1 0.00440212 0.537869 0.030386
1846 1 0.268516 0.541651 0.023692
923 1 0.464061 0.532654 0.0429046
1516 1 0.144619 0.557381 0.0295878
77 1 0.213282 0.598626 0.0350158
363 1 0.394725 0.576886 0.0470268
1420 1 0.0728219 0.651751 0.0527723
533 1 0.130493 0.625475 0.00207067
788 1 0.343756 0.654476 0.00721739
1507 1 0.42875 0.654762 0.00472893
644 1 0.0136403 0.711832 0.0290407
1464 1 0.114204 0.741003 0.0405835
871 1 0.21867 0.746805 0.0219467
1407 1 0.309433 0.754586 0.0150821
31 1 0.493922 0.750743 0.0442998
1145 1 0.0608185 0.827974 0.0136675
799 1 0.166914 0.810051 0.0364263
1719 1 0.265806 0.820878 0.0297042
1418 1 0.381438 0.808994 0.0196708
1708 1 0.462808 0.813977 0.00912546
109 1 0.344686 0.882545 0.0426079
67 1 0.0199582 0.900322 0.015605
356 1 0.187501 0.894101 0.037494
538 1 0.0740287 0.961148 0.0409443
287 1 0.157696 0.979122 0.0269774
1391 1 0.238543 0.952478 0.0103469
58 1 0.333414 0.961228 0.0333806
1888 1 0.405426 0.989864 0.0106911
1791 1 0.471677 0.957163 0.0430612
860 1 0.0825297 0.0261196 0.0901006
1429 1 0.17419 0.0274686 0.0920289
832 1 0.442852 0.024529 0.0881792
157 1 0.0356085 0.0978898 0.0877103
917 1 0.240367 0.103561 0.0597627
1571 1 0.167381 0.115696 0.0968757
1856 1 0.315584 0.122576 0.0637366
1928 1 0.392055 0.122655 0.0967662
74 1 0.157545 0.221958 0.0918435
1581 1 0.230135 0.175833 0.102233
1037 1 0.34609 0.201225 0.0841876
480 1 0.448671 0.195131 0.0635743
1480 1 0.0114749 0.26408 0.104083
1538 1 0.0716983 0.243656 0.0643806
1829 1 0.352017 0.276895 0.0942621
50 1 0.138143 0.28726 0.0593276
95 1 0.225889 0.32927 0.0657779
562 1 0.436312 0.281415 0.0826948
339 1 0.0720073 0.342655 0.0732345
1827 1 0.151859 0.379394 0.0678326
872 1 0.295947 0.384825 0.0571179
1240 1 0.362048 0.380416 0.110378
1026 1 0.438059 0.362292 0.0831913
1340 1 0.440391 0.442352 0.0785743
1953 1 0.0763513 0.499841 0.065433
1252 1 0.147341 0.461146 0.0904466
651 1 0.288055 0.476492 0.0873807
1591 1 0.358594 0.446773 0.071428
1986 1 0.168424 0.539151 0.102256
1574 1 0.335395 0.543441 0.100088
475 1 0.409736 0.516352 0.106263
877 1 0.0532004 0.571519 0.0788566
1381 1 0.289809 0.607879 0.055699
1874 1 0.362382 0.642997 0.081307
979 1 0.437341 0.662758 0.0846488
1236 1 0.0106213 0.709937 0.107117
1808 1 0.15723 0.673422 0.0578618
1845 1 0.230532 0.674887 0.0789052
1783 1 0.315168 0.706466 0.0845475
458 1 0.048438 0.775272 0.0818356
866 1 0.25105 0.75891 0.097485
2015 1 0.39631 0.724589 0.0556142
47 1 0.121051 0.813064 0.103776
216 1 0.34761 0.778104 0.0855736
1348 1 0.445033 0.795864 0.087798
674 1 0.0096288 0.850223 0.0791727
850 1 0.111393 0.879236 0.0611475
1517 1 0.200417 0.84414 0.102963
1623 1 0.303149 0.849346 0.105325
1212 1 0.385134 0.844795 0.105303
1729 1 0.474053 0.877662 0.0678029
761 1 0.0484338 0.917346 0.106531
1099 1 0.266555 0.900034 0.0607344
1686 1 0.402986 0.920144 0.0748969
112 1 0.00857998 0.990734 0.0773669
1335 1 0.202224 0.954311 0.0925867
446 1 0.274144 0.97471 0.108619
268 1 0.364156 0.993136 0.10203
861 1 0.0230719 0.0362037 0.151719
1830 1 0.0975831 0.0992556 0.139133
934 1 0.248317 0.0584367 0.117839
1300 1 0.327144 0.070284 0.120548
1614 1 0.475322 0.0888366 0.132783
1690 1 0.0243191 0.121893 0.165232
325 1 0.162927 0.157298 0.162566
560 1 0.273539 0.124601 0.151638
85 1 0.341277 0.155247 0.153267
561 1 0.0908938 0.183382 0.111289
1193 1 0.453008 0.166936 0.138105
1197 1 0.208711 0.252952 0.142278
1177 1 0.280899 0.240389 0.114156
1780 1 0.407842 0.239235 0.137171
1818 1 0.499405 0.240692 0.131363
495 1 0.090766 0.281199 0.126507
835 1 0.164058 0.316599 0.136948
340 1 0.409127 0.31899 0.152011
1898 1 0.490926 0.328563 0.142992
1168 1 0.137236 0.388334 0.141128
223 1 0.226679 0.356024 0.158842
643 1 0.295566 0.336512 0.130402
606 1 0.0599305 0.39896 0.13668
2018 1 0.20925 0.417579 0.117094
1744 1 0.285725 0.416762 0.147863
405 1 0.432495 0.396156 0.158544
1691 1 0.310064 0.4954 0.164722
554 1 0.379574 0.455515 0.147474
1104 1 0.47209 0.478525 0.141981
413 1 0.00944067 0.51981 0.135079
506 1 0.105859 0.524394 0.146131
188 1 0.25243 0.539255 0.122978
1786 1 0.388328 0.595122 0.137087
1219 1 0.465573 0.577678 0.114587
1835 1 0.0421572 0.622478 0.144592
1661 1 0.122014 0.625928 0.112157
600 1 0.204039 0.612616 0.112772
492 1 0.279818 0.656268 0.140651
1339 1 0.165137 0.683209 0.143218
1514 1 0.383111 0.675088 0.153289
1877 1 0.0925386 0.724825 0.120102
235 1 0.174604 0.7523 0.11354
1179 1 0.326051 0.735706 0.156263
811 1 0.437301 0.724921 0.127242
10 1 0.393922 0.781849 0.158885
1730 1 0.109669 0.880818 0.145308
156 1 0.449174 0.869229 0.14742
380 1 0.242864 0.901947 0.141183
1264 1 0.338763 0.920997 0.119704
351 1 0.412209 0.942792 0.1532
187 1 0.4928 0.940549 0.127017
498 1 0.123952 0.955311 0.116184
504 1 0.106414 0.0287075 0.168988
1765 1 0.286755 0.000462193 0.18478
586 1 0.389134 0.0471503 0.17143
1223 1 0.45506 0.00419686 0.170429
425 1 0.183492 0.0799662 0.166802
1196 1 0.325107 0.0866992 0.199896
605 1 0.0888687 0.158065 0.202123
1687 1 0.421391 0.114646 0.192254
1314 1 0.26186 0.206205 0.181796
1362 1 0.478964 0.181797 0.212078
570 1 0.0351722 0.228312 0.169918
621 1 0.140621 0.230346 0.192492
1448 1 0.323216 0.267254 0.179424
623 1 0.380121 0.227035 0.212619
476 1 0.448946 0.263558 0.197312
1757 1 0.0201772 0.314784 0.177932
694 1 0.0980175 0.30512 0.206695
1700 1 0.244632 0.293434 0.201038
168 1 0.0971825 0.381039 0.205924
1233 1 0.276946 0.369195 0.22134
484 1 0.349598 0.352432 0.188871
1527 1 0.463593 0.343636 0.214588
1656 1 0.0153611 0.40166 0.203806
868 1 0.158648 0.438344 0.203474
327 1 0.333183 0.433473 0.21065
1065 1 0.0821714 0.465555 0.188033
1089 1 0.233551 0.469863 0.168716
526 1 0.418008 0.462947 0.218861
2013 1 0.138815 0.518909 0.218763
1796 1 0.230396 0.547005 0.197245
1513 1 0.419454 0.541189 0.18109
1020 1 0.0502851 0.559278 0.188809
1137 1 0.157764 0.583238 0.170691
1305 1 0.310698 0.57719 0.16804
748 1 0.37368 0.598555 0.217153
429 1 0.495418 0.562495 0.18946
738 1 0.24378 0.625053 0.205666
1403 1 0.32017 0.654732 0.213451
335 1 0.443546 0.620459 0.188773
862 1 0.0102482 0.711592 0.181291
829 1 0.0965411 0.678426 0.191498
999 1 0.237756 0.709304 0.18446
406 1 0.499011 0.68686 0.1845
1015 1 0.151008 0.755418 0.185934
272 1 0.433797 0.727037 0.208944
39 1 0.0765852 0.789916 0.179739
1082 1 0.151094 0.829854 0.180215
686 1 0.222022 0.783021 0.173901
463 1 0.310996 0.825872 0.186583
1272 1 0.0387587 0.864548 0.166864
1976 1 0.240865 0.859219 0.209092
319 1 0.369634 0.886047 0.184305
1296 1 0.164729 0.921399 0.173467
1001 1 0.305163 0.927094 0.198039
180 1 0.0570263 0.962518 0.172696
757 1 0.204848 0.997816 0.168753
32 1 0.368601 0.979274 0.210312
957 1 0.0272269 0.00444553 0.238888
1023 1 0.169332 0.0336904 0.229341
941 1 0.24854 0.0545129 0.229856
783 1 0.346378 0.051343 0.269029
1613 1 0.432022 0.0507903 0.241895
1663 1 0.0927246 0.0789346 0.233996
1345 1 0.0572486 0.14581 0.2755
1261 1 0.170252 0.125 0.228838
516 1 0.246912 0.147073 0.233297
1077 1 0.357163 0.150477 0.245069
1472 1 0.453995 0.120523 0.269073
1913 1 0.00590928 0.17438 0.224567
1097 1 0.222273 0.221258 0.245798
818 1 0.305054 0.208149 0.252347
1622 1 0.425796 0.194573 0.273239
1265 1 0.0756809 0.234062 0.244918
1506 1 0.1562 0.268081 0.259229
914 1 0.308527 0.297716 0.258983
1834 1 0.384936 0.302331 0.233369
1583 1 0.45801 0.283523 0.276089
28 1 0.0402109 0.334971 0.252685
965 1 0.179064 0.364308 0.226885
2001 1 0.390959 0.374817 0.265079
486 1 0.0727624 0.426447 0.275025
240 1 0.233679 0.430551 0.232288
177 1 0.464075 0.411198 0.253547
1152 1 0.288672 0.482753 0.246145
824 1 0.483526 0.486328 0.267019
653 1 0.0575872 0.501575 0.254242
523 1 0.214955 0.512855 0.26759
1383 1 0.357499 0.518274 0.227769
575 1 0.0354764 0.57957 0.268588
588 1 0.108226 0.60835 0.241143
1158 1 0.183871 0.587053 0.256405
629 1 0.288978 0.564072 0.243484
385 1 0.448595 0.583698 0.270474
1184 1 0.165065 0.663775 0.229463
1672 1 0.467134 0.660607 0.251346
1800 1 0.0526118 0.714523 0.245555
847 1 0.264867 0.691614 0.255979
1053 1 0.195694 0.741175 0.255637
1658 1 0.282146 0.772437 0.247372
1073 1 0.355238 0.731953 0.236745
756 1 0.479101 0.748958 0.274067
1566 1 0.042613 0.829248 0.240899
281 1 0.108063 0.789498 0.251317
842 1 0.355964 0.820753 0.254799
741 1 0.434606 0.809257 0.224347
611 1 0.491811 0.824098 0.273665
806 1 0.113686 0.885473 0.231027
123 1 0.0453466 0.914758 0.253845
1778 1 0.189631 0.902981 0.249051
2003 1 0.274671 0.894979 0.270067
191 1 0.351431 0.903363 0.258754
1352 1 0.454983 0.890673 0.227777
158 1 0.119449 0.965957 0.224833
1266 1 0.223742 0.973053 0.243276
2043 1 0.312302 0.978309 0.258606
1161 1 0.444974 0.967241 0.242526
457 1 0.0729182 0.00772047 0.306366
37 1 0.155319 0.00434441 0.311393
1257 1 0.260098 0.0159376 0.322195
121 1 0.0360129 0.0748793 0.321283
1756 1 0.127323 0.108314 0.302707
454 1 0.197904 0.0729642 0.298772
849 1 0.494699 0.061617 0.307062
727 1 0.234029 0.163123 0.314089
307 1 0.294819 0.112937 0.28751
117 1 0.365109 0.114182 0.313955
211 1 0.0131221 0.212735 0.299509
1597 1 0.0916632 0.19247 0.327642
529 1 0.156643 0.183565 0.278521
170 1 0.330502 0.184512 0.325358
709 1 0.206979 0.238213 0.33129
82 1 0.280723 0.250292 0.318008
469 1 0.363254 0.247789 0.285943
900 1 0.0719055 0.286658 0.305891
670 1 0.224839 0.29598 0.278899
1427 1 0.406202 0.313624 0.322013
1032 1 0.0383675 0.357641 0.329599
336 1 0.111973 0.360293 0.281138
1205 1 0.170653 0.340392 0.327103
436 1 0.231301 0.38107 0.291114
132 1 0.314209 0.381651 0.289542
1689 1 0.161057 0.434338 0.280088
1854 1 0.0862406 0.485864 0.330834
38 1 0.272798 0.444449 0.315818
1045 1 0.344098 0.478565 0.31112
1659 1 0.44192 0.447701 0.32181
751 1 0.124621 0.554523 0.303564
583 1 0.281788 0.525356 0.31422
1033 1 0.411252 0.512384 0.287814
1540 1 0.222435 0.586573 0.324096
1903 1 0.34927 0.570078 0.299473
885 1 0.0604198 0.657071 0.29803
1885 1 0.140116 0.638654 0.326719
271 1 0.209596 0.657655 0.296648
821 1 0.292549 0.624833 0.296495
1695 1 0.373787 0.649257 0.279928
1630 1 0.418827 0.622137 0.332345
1441 1 0.119853 0.707747 0.282479
234 1 0.318528 0.69934 0.317099
1106 1 0.0440311 0.735658 0.330308
1650 1 0.254582 0.752451 0.315299
412 1 0.347888 0.76901 0.315611
1274 1 0.410823 0.723391 0.317163
1058 1 0.110169 0.778174 0.330962
467 1 0.281131 0.822984 0.31579
752 1 0.427598 0.800117 0.308858
424 1 0.00361608 0.856991 0.303657
149 1 0.0890791 0.857707 0.299142
1279 1 0.170669 0.83741 0.286952
977 1 0.364309 0.858488 0.325063
750 1 0.129347 0.928232 0.293742
798 1 0.416496 0.916147 0.298895
1255 1 0.000265865 0.959894 0.306106
1776 1 0.213273 0.945492 0.314503
416 1 0.340293 0.963107 0.331736
989 1 0.398606 0.999617 0.298852
1188 1 0.475546 0.964082 0.316488
1959 1 0.36395 0.0295474 0.364743
1915 1 0.137201 0.0600187 0.370552
961 1 0.215754 0.068958 0.376406
1484 1 0.297215 0.0896134 0.364762
993 1 0.425593 0.0769676 0.342323
684 1 0.486563 0.0674931 0.386827
1256 1 0.0116503 0.147877 0.348598
550 1 0.162066 0.154009 0.353861
44 1 0.444192 0.154182 0.36435
2032 1 0.488145 0.211198 0.336798
1471 1 0.136995 0.257299 0.348571
297 1 0.349663 0.259973 0.375938
622 1 0.415854 0.23526 0.345978
101 1 0.0355911 0.290074 0.379012
97 1 0.243781 0.31154 0.351256
490 1 0.335324 0.331883 0.343905
1548 1 0.0995556 0.33644 0.366375
833 1 0.453405 0.374974 0.350962
969 1 0.0270095 0.439299 0.334863
1160 1 0.121445 0.408548 0.349988
534 1 0.203016 0.428886 0.35379
1290 1 0.376144 0.405953 0.344339
1795 1 0.496472 0.433773 0.384059
544 1 0.169157 0.494651 0.333792
640 1 0.245038 0.495845 0.387674
1813 1 0.309634 0.445118 0.388355
1328 1 0.323141 0.520352 0.387416
303 1 0.397545 0.510314 0.368096
1180 1 0.468789 0.547487 0.347596
1761 1 0.00224582 0.583555 0.36217
1897 1 0.0773762 0.590531 0.36921
1841 1 0.158681 0.567729 0.380991
261 1 0.282163 0.585591 0.383242
2042 1 0.361719 0.587734 0.378479
1459 1 0.215207 0.648284 0.384894
966 1 0.291282 0.660358 0.378566
1714 1 0.00832973 0.669291 0.358213
485 1 0.100653 0.697292 0.367819
36 1 0.185658 0.71791 0.355844
1644 1 0.370505 0.67154 0.371018
1492 1 0.464356 0.676683 0.367288
104 1 0.316496 0.758005 0.386104
1289 1 0.0318622 0.817284 0.367231
1379 1 0.195841 0.795424 0.351645
564 1 0.380846 0.810305 0.387466
1457 1 0.136448 0.844322 0.373293
311 1 0.215176 0.870169 0.341604
869 1 0.461081 0.870019 0.350127
1338 1 0.0622571 0.923823 0.339899
1378 1 0.288406 0.906497 0.348
1873 1 0.11599 0.972839 0.368469
657 1 0.290353 0.98751 0.38871
1739 1 0.423037 0.963543 0.381791
1889 1 0.0691385 0.0461501 0.406934
510 1 0.418002 0.0431398 0.42393
1843 1 0.00177935 0.0852601 0.394275
249 1 0.0187167 0.151563 0.435857
1254 1 0.0861167 0.130012 0.391608
2006 1 0.152496 0.121422 0.427499
139 1 0.258042 0.140145 0.419802
590 1 0.37398 0.112836 0.396086
2011 1 0.00172441 0.217205 0.39334
1385 1 0.0850376 0.20194 0.406149
477 1 0.159268 0.203165 0.432608
2019 1 0.284804 0.208419 0.391346
1511 1 0.383354 0.188883 0.4078
647 1 0.458073 0.22078 0.40764
1615 1 0.096487 0.287319 0.429008
1330 1 0.177743 0.282316 0.413619
1894 1 0.283423 0.292027 0.416352
1582 1 0.355265 0.314603 0.430703
2023 1 0.432858 0.299041 0.395947
61 1 0.0181018 0.379537 0.405527
787 1 0.0967586 0.366428 0.44003
959 1 0.182272 0.369046 0.399829
1043 1 0.262593 0.37838 0.388984
1397 1 0.141877 0.437534 0.443328
338 1 0.387843 0.389836 0.417322
634 1 0.0687454 0.444782 0.400588
1760 1 0.122656 0.499618 0.404925
700 1 0.379044 0.464298 0.432318
189 1 0.475774 0.490051 0.431183
1512 1 0.0337527 0.517218 0.399957
814 1 0.413023 0.5504 0.433926
1080 1 0.00766875 0.582729 0.443236
1515 1 0.0935667 0.582593 0.444443
1092 1 0.198858 0.591936 0.437181
92 1 0.488689 0.604044 0.401828
719 1 0.0522828 0.648949 0.417057
938 1 0.134226 0.64005 0.409778
198 1 0.344718 0.652162 0.443939
199 1 0.417276 0.631105 0.419547
1666 1 0.48266 0.671775 0.443947
1667 1 0.0648214 0.769969 0.415606
488 1 0.145873 0.761006 0.406827
1218 1 0.228104 0.750297 0.421105
913 1 0.395172 0.730437 0.413832
1022 1 0.198558 0.825846 0.427215
1532 1 0.296053 0.830584 0.394228
116 1 0.452351 0.783033 0.399058
1749 1 0.0948941 0.920835 0.421181
1981 1 0.175277 0.91987 0.395078
816 1 0.246392 0.890644 0.413784
465 1 0.362901 0.909532 0.390879
1103 1 0.485536 0.909032 0.429451
423 1 0.0245304 0.949086 0.41244
1491 1 0.202947 0.995565 0.400917
1969 1 0.0131905 0.0497313 0.487338
1944 1 0.149771 0.045586 0.448938
1627 1 0.233314 0.00346363 0.473622
1242 1 0.349654 0.0016795 0.448355
1921 1 0.0756187 0.0950381 0.464935
1146 1 0.212284 0.0818563 0.46658
1374 1 0.290082 0.0731294 0.450769
1720 1 0.369806 0.0954546 0.475166
1498 1 0.470875 0.0593573 0.494345
1130 1 0.193634 0.159463 0.490534
184 1 0.329509 0.159774 0.458552
464 1 0.442684 0.156741 0.461959
1647 1 0.0953851 0.16967 0.481111
1108 1 0.23779 0.217028 0.455807
782 1 0.0422256 0.24348 0.47677
1904 1 0.126792 0.243072 0.491741
1269 1 0.328448 0.244517 0.467274
309 1 0.403849 0.258191 0.460171
1461 1 0.139992 0.330172 0.493598
1919 1 0.278832 0.305247 0.496208
1181 1 0.484433 0.27922 0.46573
963 1 0.224817 0.349751 0.467013
1645 1 0.310825 0.37117 0.46326
1098 1 0.422437 0.335673 0.470108
1539 1 0.0182255 0.40409 0.494008
1085 1 0.237887 0.433867 0.456468
1562 1 0.3834 0.406853 0.496598
1754 1 0.46196 0.395288 0.449312
1595 1 0.0757234 0.482777 0.470921
571 1 0.305264 0.47316 0.463748
712 1 0.00926214 0.519152 0.491297
129 1 0.19257 0.50723 0.478975
1078 1 0.258023 0.547821 0.456573
1521 1 0.369715 0.507785 0.498443
1134 1 0.338265 0.573479 0.455836
665 1 0.0708085 0.645456 0.499077
1044 1 0.146016 0.626345 0.48324
246 1 0.269447 0.626281 0.450956
218 1 0.444395 0.616643 0.496169
353 1 0.0356034 0.715172 0.474305
302 1 0.114398 0.695605 0.45773
1222 1 0.205369 0.676476 0.458657
1793 1 0.286453 0.705694 0.460818
1419 1 0.406294 0.685323 0.476449
267 1 0.101602 0.764938 0.486724
1901 1 0.183179 0.755067 0.486761
9 1 0.429116 0.758227 0.477631
1962 1 0.028932 0.793818 0.486453
1228 1 0.278002 0.78481 0.461157
697 1 0.359283 0.785131 0.460859
438 1 0.496101 0.804496 0.46627
1347 1 0.0154474 0.885518 0.492811
1434 1 0.0729657 0.841867 0.445131
556 1 0.154346 0.881961 0.466752
661 1 0.335089 0.870727 0.453887
1536 1 0.418488 0.840257 0.45572
2046 1 0.221482 0.930858 0.495765
352 1 0.29722 0.942587 0.45354
366 1 0.396305 0.93925 0.459783
1068 1 0.0152526 0.968196 0.491082
1102 1 0.0871097 0.99739 0.466231
186 1 0.164881 0.961285 0.462075
93 1 0.473859 0.988475 0.465588
72 1 0.0823512 0.0541847 0.530447
251 1 0.16241 0.0135034 0.535896
1481 1 0.335194 0.0431356 0.518994
1635 1 0.150038 0.0955486 0.516409
1321 1 0.260893 0.0632516 0.534792
374 1 0.412056 0.0613907 0.546067
822 1 0.0276292 0.132112 0.510206
1183 1 0.313302 0.117916 0.525766
831 1 0.445076 0.150753 0.546536
49 1 0.0607375 0.200561 0.543582
725 1 0.144809 0.183288 0.552371
1997 1 0.276225 0.196481 0.518929
502 1 0.392487 0.197186 0.524079
1248 1 0.202971 0.277343 0.502329
1096 1 0.332467 0.251491 0.550957
448 1 0.475516 0.223485 0.522568
1116 1 0.0413114 0.321647 0.506081
867 1 0.416087 0.28814 0.53588
11 1 0.211275 0.351871 0.554815
1510 1 0.361099 0.346484 0.547547
391 1 0.442433 0.371562 0.542161
1364 1 0.0927354 0.389113 0.52431
1059 1 0.179524 0.407386 0.503611
753 1 0.276621 0.392366 0.534659
766 1 0.0567336 0.489861 0.551571
1072 1 0.130943 0.467097 0.524768
992 1 0.228956 0.457878 0.547054
1118 1 0.314406 0.498565 0.545096
1859 1 0.457236 0.452788 0.504807
1319 1 0.139228 0.548864 0.533394
41 1 0.444777 0.535279 0.504643
1639 1 0.0629217 0.569551 0.523079
1189 1 0.209805 0.573768 0.517049
1821 1 0.304672 0.592895 0.531486
1775 1 0.380246 0.5793 0.529736
1421 1 0.252846 0.653934 0.517305
596 1 0.113325 0.705097 0.535107
70 1 0.328067 0.670726 0.52192
1060 1 0.248333 0.751753 0.532714
1190 1 0.370711 0.74513 0.529231
687 1 0.495555 0.738997 0.515622
672 1 0.175722 0.804018 0.552393
851 1 0.313262 0.807223 0.533268
1651 1 0.389923 0.827072 0.526656
1807 1 0.0957051 0.854037 0.536168
1139 1 0.17861 0.88607 0.545744
1840 1 0.229821 0.835308 0.501505
841 1 0.295169 0.88758 0.519267
708 1 0.478338 0.877337 0.513562
1940 1 0.0846968 0.924617 0.503174
1311 1 0.368418 0.909632 0.529158
1943 1 0.460367 0.943398 0.546109
1758 1 0.286008 0.977064 0.530719
1221 1 0.394439 0.98317 0.541205
1284 1 0.048533 0.0390478 0.606613
677 1 0.22777 0.0216332 0.591347
608 1 0.370614 0.0269767 0.604781
943 1 0.478485 0.0118864 0.57081
695 1 0.149624 0.0843837 0.598989
1384 1 0.315894 0.080843 0.594414
930 1 0.0156068 0.166278 0.604238
1828 1 0.0806544 0.121834 0.572018
627 1 0.205315 0.13474 0.562381
592 1 0.265646 0.162206 0.602673
1878 1 0.381107 0.120987 0.584961
1051 1 0.364277 0.196821 0.604021
1500 1 0.0125945 0.264208 0.590292
259 1 0.0923969 0.267222 0.572325
1892 1 0.216498 0.2239 0.563076
196 1 0.459107 0.248923 0.596127
1041 1 0.165863 0.286163 0.576528
1317 1 0.291373 0.314337 0.590274
1788 1 0.374317 0.297683 0.60526
81 1 0.454387 0.324481 0.602444
1541 1 0.0111022 0.346924 0.575953
1239 1 0.0894702 0.351316 0.591484
1320 1 0.00537575 0.429934 0.571137
650 1 0.0717055 0.431518 0.607602
221 1 0.148134 0.40972 0.577941
207 1 0.241023 0.398253 0.60983
435 1 0.342611 0.425472 0.560542
1499 1 0.422849 0.438864 0.574612
792 1 0.12322 0.487471 0.600058
503 1 0.493561 0.499 0.55946
1682 1 0.230783 0.528879 0.59068
354 1 0.41286 0.517446 0.577181
599 1 0.325429 0.559951 0.598677
990 1 0.4533 0.581333 0.56852
828 1 0.0563722 0.623226 0.575432
228 1 0.13416 0.62933 0.563341
1400 1 0.262769 0.614421 0.593443
906 1 0.397785 0.658553 0.557888
111 1 0.0245967 0.695142 0.558308
1151 1 0.185737 0.687336 0.556379
245 1 0.27924 0.693524 0.583428
1927 1 0.434683 0.71902 0.59026
410 1 0.00500649 0.7506 0.60921
1409 1 0.0974151 0.766837 0.580603
789 1 0.0332076 0.814199 0.570197
434 1 0.364018 0.796643 0.594483
980 1 0.462168 0.804208 0.56164
408 1 0.251942 0.833427 0.58247
1215 1 0.332887 0.879873 0.598395
1900 1 0.428123 0.877354 0.581601
2028 1 0.000238365 0.89827 0.605857
1707 1 0.0805443 0.912736 0.601078
734 1 0.25022 0.91834 0.575232
1561 1 0.0125413 0.97598 0.580171
797 1 0.0879102 0.982459 0.565366
1366 1 0.153564 0.946831 0.587745
1086 1 0.312088 0.962499 0.608374
1929 1 0.131591 0.013943 0.621126
1551 1 0.29635 0.0286509 0.6432
110 1 0.434143 0.0049895 0.639215
1598 1 0.244442 0.0902606 0.627546
337 1 0.386519 0.0813142 0.665085
1333 1 0.464485 0.0809419 0.636693
780 1 0.331712 0.138051 0.648797
1559 1 0.0945047 0.186148 0.614893
68 1 0.163584 0.220862 0.625369
548 1 0.438785 0.168805 0.624979
1306 1 0.0619432 0.230515 0.663713
662 1 0.22156 0.265459 0.631606
19 1 0.303102 0.24342 0.626784
1395 1 0.411377 0.239118 0.652599
1924 1 0.0405922 0.325742 0.653535
90 1 0.114973 0.288426 0.643042
1372 1 0.176264 0.352377 0.624111
1812 1 0.242533 0.336323 0.663855
322 1 0.387552 0.373198 0.623122
1301 1 0.311707 0.390742 0.618818
2031 1 0.463698 0.403106 0.649509
1569 1 0.0307184 0.464823 0.661978
1136 1 0.197421 0.460647 0.622875
292 1 0.275408 0.467841 0.625983
1091 1 0.352177 0.456601 0.62916
589 1 0.485013 0.476591 0.630593
1167 1 0.413471 0.500593 0.655924
578 1 0.0678357 0.556329 0.618249
1393 1 0.15904 0.557646 0.620042
624 1 0.394048 0.576505 0.654362
680 1 0.0329125 0.639864 0.658634
567 1 0.111551 0.613777 0.652532
1816 1 0.188487 0.63095 0.618343
1910 1 0.259633 0.657144 0.660922
1390 1 0.331974 0.64178 0.633897
1000 1 0.424713 0.652387 0.634961
1138 1 0.0832312 0.684501 0.616555
1455 1 0.171711 0.705996 0.633203
1247 1 0.0756468 0.771679 0.654664
1941 1 0.240321 0.766298 0.629575
22 1 0.372294 0.723031 0.636103
1334 1 0.450701 0.770193 0.659296
164 1 0.0122548 0.822733 0.644184
774 1 0.167308 0.793731 0.633985
1121 1 0.317577 0.819368 0.648228
1454 1 0.0902326 0.836366 0.620258
1745 1 0.184133 0.874971 0.621254
1964 1 0.395994 0.849374 0.646342
1697 1 0.473347 0.836678 0.637738
883 1 0.123533 0.922527 0.664697
100 1 0.281101 0.899553 0.66378
210 1 0.393456 0.939113 0.616807
809 1 0.0552674 0.969807 0.64715
1377 1 0.186782 0.981793 0.658208
1619 1 0.0539029 0.0380922 0.683231
1237 1 0.125394 0.00745351 0.706958
40 1 0.200679 0.054753 0.686411
79 1 0.354286 0.00223439 0.691256
666 1 0.127261 0.0850044 0.673969
744 1 0.0559298 0.119161 0.67377
301 1 0.118037 0.164898 0.698262
1709 1 0.187561 0.136369 0.670842
1113 1 0.273298 0.112578 0.694461
1914 1 0.444538 0.113804 0.702286
986 1 0.240314 0.193995 0.677887
1357 1 0.310932 0.179462 0.714333
1989 1 0.389191 0.168513 0.696404
1100 1 0.476138 0.186256 0.698421
263 1 0.26542 0.253962 0.711704
532 1 0.365729 0.241349 0.715419
1673 1 0.499984 0.254423 0.668005
1006 1 0.0896127 0.311064 0.718859
1061 1 0.167361 0.312395 0.699007
18 1 0.323451 0.306627 0.688532
1322 1 0.404485 0.317467 0.6742
962 1 0.490789 0.329511 0.683296
1698 1 0.346899 0.382608 0.689484
2044 1 0.424614 0.384872 0.717506
1297 1 0.111173 0.39814 0.682395
2 1 0.232309 0.406901 0.692753
452 1 0.0924354 0.464919 0.718662
1575 1 0.162011 0.494518 0.687103
973 1 0.294251 0.451374 0.721648
1731 1 0.381222 0.459123 0.713358
882 1 0.462689 0.468055 0.705398
1367 1 0.236697 0.52096 0.678284
239 1 0.331882 0.512813 0.684428
981 1 0.06727 0.555748 0.698384
1837 1 0.138636 0.567115 0.71468
940 1 0.20098 0.604112 0.689094
56 1 0.293171 0.579947 0.67013
1224 1 0.469032 0.595632 0.667054
479 1 0.156795 0.665966 0.701495
584 1 0.00954549 0.71935 0.69757
1140 1 0.085902 0.705588 0.70046
880 1 0.355369 0.675783 0.702397
42 1 0.478926 0.670431 0.692531
1833 1 0.150073 0.763359 0.701446
12 1 0.222431 0.727891 0.696801
8 1 0.295624 0.749411 0.678292
323 1 0.0310529 0.792259 0.718229
954 1 0.374589 0.779959 0.694445
1430 1 0.0649046 0.862236 0.692069
398 1 0.143976 0.841549 0.690931
995 1 0.237242 0.838278 0.667667
997 1 0.351251 0.850402 0.715892
1050 1 0.438058 0.835515 0.713821
726 1 0.21178 0.912493 0.705332
426 1 0.368077 0.92231 0.695733
1399 1 0.448573 0.908365 0.672086
514 1 0.286752 0.969229 0.696969
1370 1 0.436238 0.984977 0.715304
856 1 0.146857 0.053256 0.76611
1678 1 0.268231 0.046663 0.734747
1209 1 0.397495 0.0487126 0.740264
936 1 0.0712825 0.0665368 0.752632
255 1 0.211766 0.101829 0.762489
1199 1 0.342915 0.100697 0.725805
1487 1 0.473119 0.0621722 0.769632
1075 1 0.0615447 0.155197 0.758919
1114 1 0.104149 0.235464 0.737053
125 1 0.190376 0.244892 0.728207
1207 1 0.444926 0.264717 0.723976
1286 1 0.0288224 0.279216 0.75328
1169 1 0.236968 0.314215 0.751933
693 1 0.311834 0.298404 0.768439
1867 1 0.0400997 0.382396 0.728267
1016 1 0.28602 0.375445 0.753001
372 1 0.370518 0.348935 0.772553
843 1 0.15851 0.420017 0.753493
1580 1 0.218545 0.46947 0.745667
1451 1 0.419841 0.483831 0.774034
513 1 0.00277946 0.518719 0.726911
1424 1 0.207667 0.551997 0.766495
864 1 0.282901 0.546685 0.74762
1716 1 0.365199 0.543916 0.771355
945 1 0.432352 0.547637 0.727998
102 1 0.334233 0.605642 0.731787
1797 1 0.0156879 0.611309 0.73411
1495 1 0.0938562 0.626488 0.745728
1768 1 0.172256 0.622969 0.770294
143 1 0.256289 0.61695 0.742682
1518 1 0.428809 0.62335 0.740381
1186 1 0.0391126 0.67876 0.758355
105 1 0.284474 0.68844 0.727756
59 1 0.384277 0.678508 0.774576
1955 1 0.0849122 0.745155 0.765131
1359 1 0.174714 0.722995 0.76059
983 1 0.249711 0.750258 0.771426
449 1 0.332531 0.748152 0.759808
66 1 0.418865 0.728508 0.733803
664 1 0.109891 0.819483 0.753714
1817 1 0.209527 0.820585 0.739696
1988 1 0.289844 0.814614 0.757802
1211 1 0.400877 0.793974 0.775097
683 1 0.474947 0.77881 0.750924
1497 1 0.0345475 0.866367 0.769346
1353 1 0.156325 0.882727 0.758046
688 1 0.264706 0.888648 0.757568
1806 1 0.498389 0.854591 0.766038
1546 1 0.0784166 0.93546 0.726228
1855 1 0.332236 0.93932 0.763589
1523 1 0.425727 0.914688 0.760887
1112 1 0.0314258 0.999248 0.747861
1594 1 0.142914 0.963742 0.769515
1936 1 0.20854 0.994807 0.736871
620 1 0.0918904 0.0109021 0.807559
397 1 0.192932 0.0118088 0.819308
1983 1 0.332422 0.0506917 0.788471
362 1 0.0157505 0.0670075 0.820222
2035 1 0.253979 0.0651403 0.822928
991 1 0.395136 0.107781 0.786829
1987 1 0.104058 0.113552 0.813197
972 1 0.292726 0.122901 0.779615
1849 1 0.0807797 0.212812 0.812241
1132 1 0.151226 0.173643 0.784588
63 1 0.265944 0.197922 0.78432
948 1 0.359994 0.181293 0.787602
595 1 0.435418 0.173605 0.783999
1934 1 0.20353 0.251129 0.807415
185 1 0.387161 0.260027 0.789313
1759 1 0.459889 0.249143 0.800717
1972 1 0.140953 0.301162 0.782086
591 1 0.432375 0.319625 0.815791
859 1 0.0662502 0.33525 0.791954
884 1 0.20696 0.376729 0.794221
746 1 0.268833 0.338912 0.820796
128 1 0.0742161 0.40909 0.822645
175 1 0.280158 0.435845 0.824073
237 1 0.425673 0.407934 0.793442
1414 1 0.0389462 0.468183 0.778643
1071 1 0.192046 0.452923 0.828244
1220 1 0.339634 0.466785 0.785907
52 1 0.0657377 0.547055 0.779494
1974 1 0.13881 0.502069 0.78632
215 1 0.248582 0.511123 0.821666
1502 1 0.475742 0.540906 0.794307
1214 1 0.00563134 0.607415 0.807204
214 1 0.230556 0.592707 0.824705
894 1 0.313947 0.579283 0.825503
1327 1 0.435078 0.600555 0.822705
714 1 0.302501 0.651153 0.797282
579 1 0.11913 0.680136 0.800967
854 1 0.230229 0.669621 0.78968
519 1 0.443384 0.715961 0.817711
881 1 0.00344241 0.746672 0.780847
1850 1 0.0305425 0.803043 0.832891
2045 1 0.183356 0.787862 0.803426
1773 1 0.494355 0.795327 0.823077
1696 1 0.338446 0.860759 0.804349
1241 1 0.42872 0.850589 0.821996
1162 1 0.109429 0.912309 0.819282
1982 1 0.206273 0.934034 0.809572
1870 1 0.477075 0.910723 0.831082
165 1 0.0348687 0.946005 0.809958
1824 1 0.266247 0.984155 0.788253
1442 1 0.396162 0.986645 0.794946
1782 1 0.490473 0.979858 0.794427
1530 1 0.0638255 0.0461175 0.886262
1699 1 0.145699 0.0275867 0.881406
2020 1 0.389578 0.0473252 0.876106
663 1 0.177032 0.0888449 0.842891
1342 1 0.345533 0.10539 0.84481
844 1 0.450207 0.0748753 0.841011
2048 1 0.0405594 0.150253 0.834676
1375 1 0.238192 0.143677 0.838188
76 1 0.432294 0.153547 0.863024
1012 1 0.138798 0.18005 0.860686
1002 1 0.234267 0.211399 0.886667
1486 1 0.315252 0.181361 0.855553
487 1 0.0901065 0.275243 0.87212
876 1 0.164808 0.247139 0.883986
1718 1 0.275332 0.254802 0.835523
1880 1 0.383246 0.230146 0.862541
1942 1 0.0236831 0.280971 0.83772
685 1 0.155383 0.318829 0.861129
155 1 0.351788 0.307191 0.852418
321 1 0.0566865 0.346955 0.869676
1422 1 0.344074 0.38869 0.835577
699 1 0.152303 0.39961 0.878416
204 1 0.230953 0.39398 0.873586
775 1 0.445101 0.39329 0.876645
265 1 0.0359109 0.478574 0.871517
1394 1 0.119519 0.467593 0.856623
1187 1 0.391121 0.451603 0.871877
630 1 0.463129 0.48012 0.847796
1064 1 0.0919508 0.544071 0.855034
1122 1 0.173867 0.535834 0.867625
1781 1 0.320643 0.511 0.869964
1832 1 0.395228 0.524402 0.841174
1706 1 0.0207221 0.564224 0.883617
932 1 0.472218 0.561168 0.873827
1665 1 0.0745306 0.624616 0.83906
739 1 0.161666 0.624564 0.848814
582 1 0.369457 0.640574 0.855684
1847 1 0.498271 0.654344 0.834057
585 1 0.041488 0.705148 0.837308
181 1 0.194666 0.721195 0.850661
618 1 0.274204 0.71203 0.839484
1692 1 0.112733 0.750877 0.840131