ITEM: TIMESTEP
100000
ITEM: NUMBER OF ATOMS
2048
ITEM: BOX BOUNDS pp pp pp
0.0000000000000000e+00 1.3153131063095840e+01
0.0000000000000000e+00 1.3153131063095840e+01
0.0000000000000000e+00 1.3153131063095840e+01
ITEM: ATOMS id type xs ys zs
538 1 0.168521 0.138868 0.233559
1926 1 0.172294 0.103194 0.0635167
1817 1 0.210849 0.652653 0.0453401
1694 1 0.00384634 0.643708 0.280552
1725 1 0.197041 0.461664 0.0848622
273 1 0.34413 0.197249 0.301071
780 1 0.141833 0.0226896 0.0612633
572 1 0.493293 0.383375 0.427579
815 1 0.0395838 0.63834 0.00827478
1929 1 0.357497 0.521118 0.0620076
395 1 0.00847312 0.146532 0.464661
1333 1 0.360834 0.914043 0.076785
523 1 0.291424 0.0440992 0.0398454
1233 1 0.439249 0.920938 0.461755
1841 1 0.0237298 0.314487 0.444897
1450 1 0.464441 0.792865 0.183841
171 1 0.427711 0.519374 0.262374
1955 1 0.0867616 0.251125 0.271075
676 1 0.356451 0.509453 0.291293
1675 1 0.333631 0.454348 0.0969672
1902 1 0.410579 0.367557 0.0155787
1577 1 0.431911 0.70784 0.0108738
1447 1 0.0498698 0.72439 0.475881
1291 1 0.445905 0.162929 0.393798
71 1 0.44586 0.95697 0.271473
485 1 0.185486 0.809327 0.171578
1339 1 0.1501 0.537748 0.248467
188 1 0.120696 0.838687 0.046577
69 1 0.0317433 0.541852 0.259964
1600 1 0.359997 0.787985 0.0192496
1736 1 0.495152 0.319959 0.39077
1179 1 0.0903027 0.900063 0.377652
2035 1 0.135353 0.642052 0.0543811
1204 1 0.156409 0.519144 0.0484908
1470 1 0.167842 0.585273 0.103525
652 1 0.0367617 0.123547 0.0706611
1886 1 0.152483 0.436645 0.326421
701 1 0.0257155 0.899032 0.311838
892 1 0.315965 0.879347 0.145751
473 1 0.480576 0.00489792 0.0771143
327 1 0.140782 0.68578 0.363272
1127 1 0.491899 0.142663 0.477074
1231 1 0.116664 0.866445 0.177174
1292 1 0.167305 0.250498 0.0890544
845 1 0.0757925 0.965368 0.1018
1030 1 0.384408 0.0461046 0.109269
677 1 0.112318 0.578313 0.388681
1386 1 0.113165 0.0299409 0.174543
1987 1 0.287992 0.744953 0.0365043
1353 1 0.222127 0.192219 0.267793
1648 1 0.184508 0.388104 0.0079309
1611 1 0.0666182 0.0490954 0.118622
414 1 0.331235 0.348376 0.0572143
1965 1 0.0909698 0.508821 0.432526
530 1 0.456304 0.411842 0.483717
1082 1 0.227201 0.499997 0.447724
354 1 0.327644 0.849009 0.327226
302 1 0.239013 0.309687 0.0797973
1778 1 0.050486 0.398946 0.351716
545 1 0.421785 0.284491 0.349545
493 1 0.000908601 0.367654 0.294798
1804 1 0.279611 0.19215 0.0753063
978 1 0.46965 0.177674 0.0276688
1578 1 0.175976 0.16315 0.16214
433 1 0.151323 0.775297 0.0765328
556 1 0.0196286 0.220791 0.260424
60 1 0.484942 0.221322 0.426362
1254 1 0.442037 0.233798 0.0739627
1010 1 0.242328 0.0985301 0.0868674
595 1 0.418295 0.141162 0.0802413
1758 1 0.270657 0.566884 0.460704
1676 1 0.310751 0.705575 0.456072
973 1 0.373059 0.264757 0.0282038
1748 1 0.422554 0.868449 0.416727
1740 1 0.112745 0.387774 0.139763
1238 1 0.00352479 0.551639 0.435499
757 1 0.164068 0.319876 0.0568353
412 1 0.0538823 0.218768 0.325158
2011 1 0.261434 0.43254 0.116932
820 1 0.225069 0.53898 0.0734458
420 1 0.195629 0.371376 0.138267
1257 1 0.21021 0.547815 0.147822
1708 1 0.385562 0.382817 0.127068
1124 1 0.213443 0.0114109 0.051068
1962 1 0.425223 0.0662902 0.0472079
265 1 0.322649 0.534694 0.407379
1318 1 0.103495 0.65104 0.169561
203 1 0.089421 0.904737 0.0410317
1369 1 0.173297 0.74649 0.138928
303 1 0.0396455 0.244149 0.425313
1844 1 0.477929 0.822824 0.273938
1807 1 0.422496 0.0572759 0.401822
1512 1 0.251086 0.781492 0.0883471
50 1 0.0127721 0.179329 0.188033
1949 1 0.216764 0.725908 0.033894
170 1 0.331466 0.326291 0.364845
277 1 0.2314 0.89613 0.489497
198 1 0.39758 0.988375 0.0621697
76 1 0.170618 0.893152 0.0310383
1312 1 0.253664 0.00823292 0.114172
690 1 0.423064 0.413663 0.418203
1351 1 0.0570786 0.974679 0.182591
666 1 0.336875 0.781441 0.0883632
1581 1 0.208878 0.94579 0.126562
385 1 0.0694489 0.88156 0.484538
347 1 0.0186272 0.263124 0.141367
841 1 0.310038 0.575233 0.258926
603 1 0.23988 0.20473 0.197771
1583 1 0.0987268 0.879337 0.27679
199 1 0.179371 0.224925 0.388473
1833 1 0.236485 0.124797 0.200697
1660 1 0.303242 0.128474 0.0101598
1001 1 0.263986 0.479564 0.0476923
967 1 0.309902 0.178392 0.239617
862 1 0.288191 0.661034 0.0722569
406 1 0.352606 0.163921 0.110515
17 1 0.0691475 0.152393 0.00846959
46 1 0.305241 0.259717 0.086642
1823 1 0.445439 0.287519 0.0235043
1549 1 0.261551 0.158128 0.141216
1891 1 0.396158 0.0442671 0.225132
1752 1 0.254528 0.224268 0.385071
1269 1 0.395158 0.100804 0.455332
1797 1 0.257481 0.418489 0.283861
1195 1 0.416021 0.125447 0.155805
1028 1 0.0660799 0.55958 0.330229
457 1 0.15767 0.911992 0.497536
1850 1 0.288985 0.969106 0.0262161
358 1 0.42188 0.645561 0.384234
1256 1 0.25103 0.419112 0.211833
1019 1 0.308396 0.312768 0.194888
413 1 0.478229 0.383975 0.0409755
628 1 0.073107 0.783637 0.0645959
1411 1 0.135908 0.526828 0.1247
344 1 0.294439 0.643527 0.186314
1838 1 0.500094 0.746936 0.237277
517 1 0.345638 0.820756 0.457988
391 1 0.0587072 0.709741 0.192569
111 1 0.316232 0.717853 0.156413
779 1 0.213537 0.68195 0.176242
1051 1 0.356593 0.696509 0.0364376
1593 1 0.322582 0.29937 0.44419
1484 1 0.192476 0.605446 0.194083
1491 1 0.334497 0.784717 0.190527
834 1 0.205285 0.18034 0.0391299
1968 1 0.429624 0.667085 0.0866638
1661 1 0.422439 0.135594 0.328303
320 1 0.344033 0.609266 0.385443
817 1 0.247624 0.67617 0.42472
1293 1 0.169803 0.805728 0.482053
660 1 0.451667 0.528779 0.476444
1584 1 0.1258 0.166799 0.419433
355 1 0.163006 0.865628 0.368762
547 1 0.42009 0.00570678 0.168737
1735 1 0.261154 0.826355 0.162658
616 1 0.47851 0.94711 0.19419
1948 1 0.0517061 0.926357 0.243558
887 1 0.151969 0.884107 0.111292
1809 1 0.336878 0.93177 0.20027
268 1 0.0300485 0.751738 0.114894
909 1 0.374164 0.383944 0.457741
362 1 0.0491687 0.27356 0.210565
9 1 0.346356 0.035446 0.389368
1017 1 0.10009 0.708669 0.419841
1890 1 0.35275 0.296775 0.132233
1698 1 0.428842 0.605976 0.128297
1776 1 0.296147 0.0975187 0.355373
1038 1 0.0448317 0.171606 0.403041
1087 1 0.458103 0.0652672 0.148929
1478 1 0.195986 0.297341 0.156153
65 1 0.311131 0.220209 0.157954
921 1 0.0715581 0.0120698 0.372666
1171 1 0.410365 0.178406 0.270098
1502 1 0.149884 0.458736 0.14333
1555 1 0.288384 0.361514 0.14184
1930 1 0.350462 0.437432 0.242437
1554 1 0.440691 0.243009 0.20886
1552 1 0.332171 0.381357 0.199922
1775 1 0.0295478 0.493798 0.202877
1865 1 0.439405 0.511814 0.332599
993 1 0.101208 0.0922859 0.0517949
1334 1 0.0894421 0.588569 0.259613
1376 1 0.225053 0.502361 0.210683
1189 1 0.44557 0.426662 0.20968
1935 1 0.371375 0.440617 0.167058
411 1 0.220005 0.726443 0.375629
1796 1 0.239155 0.38585 0.061274
942 1 0.365412 0.691052 0.216453
1703 1 0.0191192 0.409693 0.125133
1003 1 0.0371012 0.668136 0.125537
997 1 0.333371 0.70805 0.295822
2028 1 0.209837 0.737092 0.304635
1738 1 0.408721 0.574334 0.391326
984 1 0.476835 0.06898 0.33794
821 1 0.39698 0.798561 0.155087
72 1 0.0986136 0.976197 0.0172228
1586 1 0.254507 0.882764 0.22316
141 1 0.267411 0.949165 0.185928
1227 1 0.453796 0.876113 0.168442
291 1 0.0724298 0.852181 0.10693
1281 1 0.247302 0.0479395 0.290853
899 1 0.132991 0.211138 0.235484
1241 1 0.318125 0.999909 0.170552
1534 1 0.322361 0.8552 0.233324
1900 1 0.0952226 0.954797 0.298901
901 1 0.312292 0.0289593 0.317222
1901 1 0.434424 0.962472 0.00286954
250 1 0.3718 0.0189784 0.468337
1409 1 0.332653 0.0695765 0.248587
1792 1 0.0345492 0.156969 0.292758
1945 1 0.3935 0.0492366 0.309872
441 1 0.266304 0.126928 0.269205
1659 1 0.415614 0.305517 0.0894248
309 1 0.219252 0.172377 0.460618
1744 1 0.00919602 0.834945 0.347409
1302 1 0.471206 0.276229 0.268659
200 1 0.309636 0.982587 0.437166
631 1 0.314974 0.331698 0.262546
1205 1 0.358263 0.12312 0.291892
1102 1 0.178087 0.273185 0.232038
1182 1 0.430415 0.522688 0.0963003
1897 1 0.013471 0.479112 0.480616
717 1 0.331045 0.259461 0.249047
808 1 0.349011 0.108692 0.169388
85 1 0.36125 0.520549 0.213672
789 1 0.380419 0.323791 0.205085
1086 1 0.292902 0.456631 0.43364
724 1 0.302633 0.495781 0.176298
1344 1 0.430893 0.199226 0.14855
842 1 0.479481 0.33826 0.242545
504 1 0.255871 0.573072 0.208406
697 1 0.132718 0.449016 0.0277083
1958 1 0.152156 0.398257 0.0813961
952 1 0.217062 0.600497 0.266728
749 1 0.183751 0.38065 0.38702
164 1 0.370779 0.554993 0.124801
262 1 0.122864 0.58156 0.189765
1829 1 0.115437 0.0101343 0.46133
867 1 0.102294 0.697287 0.275451
589 1 0.126527 0.747132 0.197908
1536 1 0.298325 0.578789 0.126219
773 1 0.137847 0.817649 0.309054
763 1 0.294968 0.754254 0.395198
1620 1 0.284257 0.707648 0.234226
696 1 0.388454 0.922925 0.146071
1941 1 0.310066 0.899788 0.485023
871 1 0.16275 0.906314 0.301317
602 1 0.266875 0.800317 0.244366
1420 1 0.369191 0.673096 0.137015
1099 1 0.484349 0.2586 0.134493
1669 1 0.0338985 0.948708 0.407601
328 1 0.179933 0.889789 0.202813
590 1 0.229496 0.850802 0.294174
1528 1 0.356088 0.097012 0.056086
941 1 0.104033 0.810406 0.236294
90 1 0.215037 0.941742 0.26317
1460 1 0.283658 0.06898 0.178832
1185 1 0.247484 0.731279 0.476219
1859 1 0.0790522 0.330406 0.0789219
980 1 0.3534 0.880614 0.392583
957 1 0.403571 0.816321 0.353433
1759 1 0.0307855 0.553352 0.0314709
1434 1 0.417227 0.853785 0.0978464
662 1 0.0917327 0.0451554 0.250748
722 1 0.17604 0.995056 0.189795
1192 1 0.199756 0.24117 0.456954
18 1 0.181347 0.912185 0.422987
1881 1 0.419612 0.111166 0.231615
1436 1 0.393191 0.216924 0.39684
1884 1 0.130563 0.93442 0.240136
1064 1 0.471854 0.037794 0.22192
2001 1 0.195412 0.983877 0.459554
295 1 0.401038 0.251161 0.286823
1919 1 0.384272 0.878196 0.0148966
117 1 0.290089 0.27731 0.328536
1508 1 0.44326 0.211155 0.325633
1856 1 0.182772 0.616122 0.378499
1435 1 0.331523 0.424858 0.310244
846 1 0.125232 0.322699 0.205831
567 1 0.216817 0.320006 0.276336
289 1 0.0255657 0.389893 0.0423067
1220 1 0.0353236 0.901407 0.172546
1613 1 0.397169 0.366127 0.277102
297 1 0.451795 0.605312 0.253495
1500 1 0.129415 0.37374 0.46921
1731 1 0.14025 0.0937968 0.14365
1105 1 0.1437 0.670547 0.225932
1324 1 0.0943165 0.400814 0.282546
102 1 0.42774 0.829079 0.483321
276 1 0.362417 0.679512 0.362706
318 1 0.241878 0.630243 0.126945
1053 1 0.17112 0.666748 0.110599
1864 1 0.331369 0.217736 0.453993
994 1 0.0313093 0.0581136 0.0244754
598 1 0.496004 0.673879 0.247913
685 1 0.183776 0.781304 0.251132
2029 1 0.0385372 0.060907 0.192949
1847 1 0.239276 0.753673 0.190125
2039 1 0.284093 0.982006 0.252724
772 1 0.434648 0.764153 0.270376
895 1 0.177357 0.74258 0.436742
204 1 0.248451 0.508897 0.378887
1851 1 0.054233 0.0775713 0.309645
626 1 0.398069 0.453064 0.324144
1008 1 0.208594 0.313579 0.000181917
825 1 0.492853 0.893079 0.267017
1718 1 0.176819 0.00417846 0.280371
804 1 0.373439 0.174448 0.032905
809 1 0.00859958 0.453762 0.313523
425 1 0.488745 0.526737 0.386642
220 1 0.0843747 0.130237 0.350914
1226 1 0.256928 0.959276 0.32394
1122 1 0.373376 0.232829 0.101532
710 1 0.324553 0.510017 0.482449
1837 1 0.459707 0.456226 0.277753
743 1 0.484443 0.178201 0.215701
893 1 0.129037 0.713463 0.0198598
1261 1 0.237365 0.436272 0.357259
1234 1 0.0411727 0.478228 0.0443614
1021 1 0.125314 0.853205 0.440071
844 1 0.315167 0.0743553 0.111359
1016 1 0.13993 0.332933 0.279799
67 1 0.273703 0.360522 0.336916
122 1 0.107513 0.375967 0.021863
1308 1 0.256228 0.261861 0.242829
1473 1 0.103186 0.239801 0.373795
1951 1 0.278199 0.486309 0.25722
751 1 0.242205 0.79479 0.438252
1262 1 0.0319196 0.196439 0.105687
964 1 0.254134 0.544074 0.315956
1062 1 0.266842 0.618636 0.376449
1455 1 0.234033 0.146218 0.34989
721 1 0.464325 0.75062 0.0687682
1266 1 0.219974 0.853809 0.104317
919 1 0.0896036 0.121471 0.498536
458 1 0.238692 0.347021 0.199351
550 1 0.48037 0.490204 0.216542
734 1 0.416618 0.430608 0.0802241
1604 1 0.0425451 0.589263 0.176753
571 1 0.247199 0.706997 0.11392
977 1 0.206991 0.806161 0.367969
1270 1 0.0891394 0.645653 0.330407
1887 1 0.0600841 0.70715 0.358055
926 1 0.424128 0.264795 0.445687
1490 1 0.0399513 0.775868 0.410193
1717 1 0.346254 0.784939 0.27738
49 1 0.47323 0.817813 0.380605
694 1 0.322903 0.995179 0.0955409
1791 1 0.11306 0.786741 0.41127
1083 1 0.0881425 0.441989 0.0904412
657 1 0.132532 0.256 0.155857
58 1 0.00677004 0.945187 0.122359
1063 1 0.324356 0.944197 0.362537
715 1 0.460122 0.663767 0.178797
912 1 0.0580452 0.845903 0.416708
1497 1 0.153603 0.951544 0.360074
1047 1 0.398285 0.842481 0.27357
787 1 0.107997 0.0902692 0.430123
1355 1 0.0854005 0.253177 0.0713739
1425 1 0.459271 0.586359 0.0350452
324 1 0.307189 0.370977 0.475578
693 1 0.380965 0.980604 0.334087
1426 1 0.0654931 0.759875 0.286514
883 1 0.00962161 0.264032 0.0406855
1210 1 0.0612615 0.330379 0.153141
771 1 0.321459 0.100098 0.446145
1663 1 0.459384 0.433055 0.351339
1391 1 0.122121 0.111853 0.287034
1346 1 0.128926 0.243931 0.451597
83 1 0.143928 0.264199 0.319519
207 1 0.0745481 0.446603 0.171948
905 1 0.166594 0.664398 0.454115
284 1 0.126783 0.188168 0.318673
1246 1 0.201273 0.383887 0.312364
462 1 0.0507264 0.508708 0.122098
1866 1 0.387276 0.321805 0.41329
363 1 0.0652725 0.325969 0.278148
290 1 0.1348 0.423752 0.210357
221 1 0.358799 0.391165 0.384646
243 1 0.419809 0.173936 0.465718
251 1 0.238503 0.408513 0.473893
1815 1 0.14727 0.305339 0.416851
1147 1 0.215718 0.673534 0.251394
1734 1 0.190623 0.448882 0.261485
1557 1 0.417259 0.671052 0.297164
78 1 0.411732 0.917928 0.217882
1511 1 0.181869 0.53687 0.396154
1206 1 0.47267 0.582014 0.327358
1501 1 0.178575 0.462372 0.407014
938 1 0.250684 0.11506 0.413946
1831 1 0.272876 0.927237 0.0963036
1596 1 0.293328 0.0397038 0.478591
261 1 0.477654 0.131987 0.274405
430 1 0.478106 0.454916 0.428774
419 1 0.382862 0.588499 0.303879
1544 1 0.427882 0.921257 0.346781
1801 1 0.251302 0.667 0.320955
1976 1 0.355994 0.605167 0.181491
345 1 0.370579 0.620462 0.0751737
1069 1 0.00432683 0.750554 0.232904
928 1 0.45867 0.765641 0.443164
1040 1 0.234028 0.043032 0.22422
1788 1 0.252596 0.0380174 0.418144
910 1 0.432802 0.71544 0.38983
438 1 0.0338087 0.0957398 0.397121
1215 1 0.30511 0.571919 0.0349411
304 1 0.376487 0.654008 0.449613
312 1 0.402429 0.963406 0.416614
116 1 0.0983413 0.942176 0.447235
1795 1 0.371246 0.183409 0.19787
152 1 0.23716 0.24503 0.120316
1413 1 0.480338 0.339221 0.318672
813 1 0.0688918 0.137693 0.13585
231 1 0.388987 0.747114 0.327647
1335 1 0.482546 0.456629 0.143403
359 1 0.245744 0.958115 0.406548
873 1 0.290938 0.837679 0.0312637
1957 1 0.0613304 0.648935 0.235143
1326 1 0.0911991 0.473872 0.236873
1177 1 0.151601 0.760638 0.35869
605 1 0.382942 0.552431 0.485392
969 1 0.36578 0.986405 0.263285
1095 1 0.0663291 0.697338 0.0612641
1370 1 0.204977 0.45908 0.00485706
2017 1 0.24949 0.337616 0.432407
1190 1 0.327201 0.251851 0.387327
1198 1 0.318626 0.172458 0.390309
346 1 0.181638 0.107045 0.438016
622 1 0.0728795 0.314859 0.35443
649 1 0.119884 0.369669 0.346453
799 1 0.385819 0.465183 0.448185
1999 1 0.220548 0.251656 0.31732
1130 1 0.163291 0.563182 0.321878
1626 1 0.325029 0.472105 0.365882
45 1 0.415495 0.357495 0.346656
1984 1 0.100863 0.719631 0.120949
384 1 0.0913641 0.1351 0.224054
1126 1 0.200654 0.502797 0.324485
1705 1 0.128268 0.457933 0.463757
1756 1 0.323847 0.55513 0.334552
310 1 0.0825736 0.206242 0.166375
1594 1 0.109772 0.572815 0.0276999
761 1 0.113831 0.502774 0.311531
1733 1 0.244534 0.901441 0.0356676
764 1 0.0327282 0.823194 0.252045
1284 1 0.154293 0.63722 0.291512
454 1 0.07627 0.593978 0.100883
1180 1 0.0677513 0.627983 0.431499
917 1 0.100501 0.450695 0.389344
672 1 0.130388 0.165051 0.099707
51 1 0.228205 0.580936 0.00218117
1211 1 0.0835187 0.360412 0.413231
913 1 0.287336 0.907371 0.280802
1240 1 0.204929 0.600621 0.493113
527 1 0.367345 0.764209 0.4075
996 1 0.444996 0.992083 0.362735
998 1 0.158266 0.0184509 0.401313
1972 1 0.126783 0.0538909 0.338833
1136 1 0.0224359 -0.000382766 0.0694772
1547 1 0.438783 0.827337 0.0145566
233 1 0.370492 0.913669 0.302532
205 1 0.214486 0.0761559 0.35963
569 1 0.293147 0.834005 0.406558
904 1 0.165452 0.0680713 0.206387
1092 1 0.316015 0.632742 0.305771
1943 1 0.0776782 0.800648 0.347665
2010 1 0.108378 0.797776 0.150388
1044 1 0.0410046 0.411418 0.444902
1523 1 0.440906 0.939635 0.0977427
1609 1 0.0974235 0.304567 0.484722
727 1 0.46948 0.0564223 0.458975
1160 1 0.498152 0.253737 0.351843
1504 1 0.370785 0.111839 0.375419
1061 1 0.0264241 0.80429 0.169208
1647 1 0.22643 0.0750435 0.0188442
1573 1 0.43646 0.327821 0.160419
1877 1 0.010057 0.908733 0.0491732
1337 1 0.220511 0.821727 0.0329407
1514 1 0.134714 0.94559 0.145069
168 1 0.0433836 0.369719 0.218278
1140 1 0.042074 0.493513 0.374827
1677 1 0.145993 0.944995 0.0688794
77 1 0.40247 0.741533 0.107133
1678 1 0.201551 0.312682 0.363209
1120 1 0.262611 0.889887 0.350298
439 1 0.00438887 0.831338 0.08531
1482 1 0.167913 0.540765 0.470115
218 1 0.450071 0.33401 0.477637
889 1 0.0334768 0.996624 0.310688
1658 1 0.451302 0.693071 0.460015
348 1 0.126347 0.599199 0.499356
390 1 0.494286 0.110339 0.00405898
131 1 0.494349 0.885789 0.0641127
585 1 0.448654 0.538708 0.165034
1553 1 0.135383 0.206295 0.0347252
1330 1 0.26232 0.281771 0.496361
1410 1 0.307441 0.630896 0.457915
1764 1 0.260405 0.261748 0.00284255
1445 1 0.0593504 0.551807 0.482915
422 1 0.0756467 0.797911 0.475637
927 1 0.415898 0.477948 0.0273777
1869 1 0.00474582 0.291866 0.342245
350 1 0.0813344 0.477771 0.575289
1338 1 0.16988 0.96047 0.548965
674 1 0.249625 0.505454 0.892255
1521 1 0.242718 0.882916 0.962913
1050 1 0.402174 0.0310467 0.972864
875 1 0.361796 0.0151132 0.567445
524 1 0.105704 0.71252 0.844633
502 1 0.284325 1.00161 0.571287
947 1 0.153828 0.29753 0.629517
1772 1 0.461559 0.646542 0.885483
238 1 0.473619 0.765261 0.973515
1638 1 0.345354 0.694467 0.961669
1421 1 0.0561257 0.369677 0.776977
1942 1 0.0515507 0.19404 0.503284
185 1 0.433428 0.25766 0.568079
1693 1 0.476353 0.556626 0.537211
1895 1 0.063922 0.20086 0.647104
54 1 0.182747 0.0348639 0.54012
936 1 0.485164 0.575604 0.744038
1317 1 0.338023 0.834432 0.936167
1048 1 0.18857 0.225917 0.575567
113 1 0.164118 0.514476 0.97391
31 1 0.433277 0.328097 0.703367
1480 1 0.110395 0.457407 0.951866
903 1 0.0711197 0.426868 0.899602
1700 1 0.0209727 0.366612 0.501187
1274 1 0.236856 0.611125 0.603762
1039 1 0.414725 0.171766 0.823176
1651 1 0.351423 0.483886 0.579936
630 1 0.44868 0.908448 0.539602
885 1 0.155717 0.702639 0.638683
490 1 0.484217 0.512889 0.867168
930 1 0.366538 0.360935 0.925635
1910 1 0.0298201 0.978835 0.977225
638 1 0.108064 0.642681 0.679287
1537 1 0.109671 0.626005 0.965516
1196 1 0.287398 0.0341326 0.950759
151 1 0.310057 0.606052 0.966469
501 1 0.00742914 0.414611 0.628268
1118 1 0.412425 0.234356 0.697709
115 1 0.0981667 0.412878 0.652623
945 1 0.188608 0.772854 0.616944
39 1 0.0457543 0.727619 0.91069
1964 1 0.133753 0.345331 0.776746
1213 1 0.358874 0.683087 0.519208
1842 1 0.00288483 0.210721 0.820755
829 1 0.0405268 0.953636 0.76241
1561 1 0.482857 0.93249 0.746386
673 1 0.0270181 0.839238 0.76947
1882 1 0.377569 0.962213 0.79405
1861 1 0.169337 0.202242 0.922501
940 1 0.466135 0.891148 0.979024
124 1 0.464081 0.000832351 0.659722
786 1 0.176223 0.167742 0.635048
1258 1 0.372099 0.186321 0.656119
512 1 0.0859141 0.304178 0.890418
257 1 0.234656 0.0791554 0.525381
258 1 0.0320796 0.989 0.898022
1263 1 0.160248 0.923579 0.612948
807 1 0.450669 0.172449 0.723037
1605 1 0.0342082 0.200898 0.577939
1746 1 0.0138797 0.717014 0.694317
988 1 0.155394 0.575452 0.653428
270 1 0.248293 0.974753 0.515195
2018 1 0.343531 0.547296 0.922907
854 1 0.454274 0.375555 0.61361
1200 1 0.0889694 0.950566 0.871279
987 1 0.0883087 0.519695 0.979405
1153 1 0.0220072 0.183814 0.900548
114 1 0.202724 0.416855 0.654549
1319 1 0.384678 0.663089 0.801155
1981 1 0.239432 0.212929 0.518721
974 1 0.162068 0.922957 0.941647
679 1 0.268131 0.467524 0.509991
5 1 0.238229 0.352246 0.52448
664 1 0.47731 0.337857 0.876464
1267 1 0.307171 0.519823 0.666834
1449 1 0.204728 0.509438 0.541931
1787 1 0.384966 0.892214 0.505723
1855 1 0.316987 0.586742 0.600095
1685 1 0.0626044 0.381952 0.965512
1408 1 0.445909 0.094767 0.84626
1985 1 0.104882 0.838208 0.586208
80 1 0.393364 0.321469 0.576262
1388 1 0.454466 0.571839 0.641521
1761 1 0.32286 0.104989 0.931822
1402 1 0.0552908 0.819923 0.647057
1354 1 0.057497 0.502256 0.885248
1065 1 0.312909 0.158191 0.565753
322 1 0.136786 0.414989 0.727737
1686 1 0.462721 0.998246 0.923892
1614 1 0.197444 0.162656 0.806066
336 1 0.487703 0.943779 0.593504
1282 1 0.0335787 0.910524 0.827836
387 1 0.266226 0.46487 0.966414
1022 1 0.395608 0.783888 0.709346
1468 1 0.0549823 0.625299 0.54456
282 1 0.0533402 0.202755 0.74378
1862 1 0.197109 0.687688 0.532585
21 1 0.402603 0.0407316 0.68266
1078 1 0.447996 0.732798 0.866583
943 1 0.0842184 0.229978 0.884844
1207 1 0.267407 0.0497498 0.819403
1874 1 0.440798 0.740401 0.593438
1681 1 0.0626542 0.555495 0.567821
600 1 0.393353 0.825494 0.854408
1539 1 0.442634 0.954304 0.851106
1186 1 0.439325 0.730716 0.668337
1730 1 0.337012 0.473493 0.912615
568 1 0.188252 0.295234 0.519985
1345 1 0.408165 0.938145 0.675991
541 1 0.000366742 0.945483 0.703709
1073 1 0.280968 0.130128 0.503018
577 1 0.335646 0.0212554 0.832698
1429 1 0.326927 0.126726 0.7637
1164 1 0.251263 0.394184 0.970879
1892 1 0.27361 0.0964715 0.877233
1624 1 0.16784 0.350815 0.680876
1108 1 0.467721 0.208096 0.628654
1380 1 0.249639 0.318823 0.684976
148 1 0.359716 0.391846 0.582795
280 1 0.264405 0.459338 0.667178
972 1 0.318639 0.307257 0.53629
730 1 0.194351 0.477322 0.697865
87 1 0.21163 0.280059 0.78989
38 1 0.0866668 0.666969 0.902872
1049 1 0.27832 0.487971 0.82146
466 1 0.007896 0.922907 0.63185
1870 1 0.324041 0.332054 0.863765
486 1 0.223038 0.31675 0.589621
1535 1 0.135106 0.100762 0.930335
1710 1 0.378572 0.533684 0.631942
62 1 0.409462 0.409963 0.656928
1149 1 0.335403 0.437252 0.641391
1027 1 0.351202 0.97544 0.98998
520 1 0.413241 0.859519 0.662591
1109 1 0.190624 0.135657 0.980579
985 1 0.053888 0.97155 0.58752
1117 1 0.404575 0.60906 0.571303
161 1 0.421762 0.434343 0.585849
478 1 0.0155121 0.270306 0.876633
678 1 0.330038 0.586198 0.701245
1283 1 0.42028 0.636233 0.658627
339 1 0.0585339 0.229475 0.959179
1768 1 0.479273 0.0518419 0.745714
286 1 0.121933 0.785172 0.65166
654 1 0.217027 0.688664 0.601222
1876 1 0.249153 0.310156 0.851204
255 1 0.390547 0.793703 0.590161
971 1 0.187401 0.757408 0.973358
1779 1 0.0788487 0.348305 0.703044
1812 1 0.469707 0.797532 0.855547
1750 1 0.0351876 0.28841 0.537452
226 1 0.419382 0.589636 0.934625
106 1 0.350521 0.834449 0.730602
797 1 0.149582 0.856284 0.643933
1306 1 0.137386 0.826765 0.798145
1977 1 0.443078 0.012908 0.568114
332 1 0.0758527 0.263935 0.601748
1849 1 0.418851 0.847688 0.75004
1556 1 0.327225 0.823198 0.803341
1286 1 0.243792 0.863789 0.624252
1150 1 0.149273 0.774537 0.551572
982 1 0.115175 0.150517 0.663423
1165 1 0.296724 0.121758 0.682551
923 1 0.375499 0.693754 0.600412
1656 1 0.0595722 0.25618 0.79552
1466 1 0.348929 0.0385304 0.634684
1602 1 0.417892 0.0680047 0.601346
1531 1 0.243465 0.196993 0.961395
159 1 0.366663 0.864908 0.584655
1154 1 0.156668 0.195303 0.505577
367 1 0.20126 0.0825134 0.593037
88 1 0.0953837 0.765287 0.751946
558 1 0.269451 0.215031 0.594148
1332 1 0.285789 0.20391 0.675436
431 1 0.0406028 0.72446 0.983731
402 1 0.279334 0.261134 0.721525
651 1 0.375873 0.344373 0.651475
1518 1 0.0749156 0.431883 0.515872
963 1 0.0934642 0.370327 0.850069
301 1 0.255548 0.42673 0.736231
542 1 0.434285 0.81742 0.919713
1098 1 0.148321 0.541219 0.580228
285 1 0.48429 0.671118 0.658908
30 1 0.465827 0.716876 0.740125
1781 1 0.120984 0.594068 0.889781
401 1 0.117655 0.621491 0.825222
503 1 0.0981068 0.584713 0.7362
540 1 0.378253 0.274628 0.910702
1451 1 0.167338 0.713736 0.709854
449 1 0.0964041 0.833305 0.712083
187 1 0.103358 0.164209 0.939915
1753 1 0.0991575 0.715785 0.687987
1644 1 0.120306 0.00528203 0.57964
669 1 0.283514 0.804658 0.728756
1422 1 0.345261 0.108459 0.616888
341 1 0.392185 0.772425 0.524721
1364 1 0.230891 0.91464 0.560934
1232 1 0.103894 0.995425 0.72172
1682 1 0.114872 0.781382 0.999342
1827 1 0.272329 0.785836 0.585486
1989 1 0.0641471 0.01578 0.525639
1060 1 0.280216 0.930012 0.698619
279 1 0.202618 0.0224436 0.833724
2048 1 0.221872 0.106805 0.672278
747 1 0.109522 0.680129 0.566632
1959 1 0.277421 0.070636 0.739205
20 1 0.323544 3.37923e-05 0.75729
525 1 0.0248852 0.790312 0.557755
951 1 0.122503 0.225848 0.694832
1914 1 0.277958 0.0315387 0.675111
1253 1 0.388063 0.111674 0.682423
847 1 0.469718 0.430384 0.715648
675 1 0.130932 0.288251 0.728005
267 1 0.232585 0.85265 0.776629
1816 1 0.456677 0.119496 0.774397
625 1 0.352309 0.247981 0.573458
1272 1 0.256896 0.211854 0.768323
1152 1 0.0217365 0.692813 0.817756
1510 1 0.420523 0.447511 0.770233
378 1 0.431872 0.301726 0.635267
1915 1 0.131063 0.0729732 0.618626
249 1 0.222796 0.456866 0.588335
405 1 0.117004 0.956281 0.783774
728 1 0.399256 0.570545 0.694273
968 1 0.395997 0.368077 0.846807
91 1 0.460028 0.331191 0.55363
316 1 0.290176 0.435652 0.570259
92 1 0.1206 0.505217 0.665176
704 1 0.448207 0.374681 0.768239
853 1 0.288178 0.287046 0.606938
1854 1 0.303415 0.669511 0.599802
1799 1 0.201221 0.343146 0.744148
1056 1 0.281646 0.649041 0.523203
2022 1 0.45635 0.797298 0.636827
398 1 0.373932 0.474605 0.692669
1161 1 0.0277045 0.641667 0.669109
1340 1 0.273231 0.67928 0.975153
861 1 0.0445268 0.989691 0.665915
1463 1 0.0816159 0.676505 0.755499
467 1 0.110722 0.913836 0.563079
1015 1 0.0776435 0.755582 0.60093
991 1 0.184189 0.767985 0.895136
470 1 0.441681 0.768576 0.792855
1025 1 0.163437 0.89991 0.785235
364 1 0.151727 0.639812 0.745271
393 1 0.295795 0.833581 0.533255
189 1 0.345968 0.43652 0.515227
1673 1 0.369865 0.900864 0.85326
4 1 0.300544 0.728762 0.768865
1947 1 0.0315352 0.364084 0.575475
1728 1 0.24769 0.250987 0.90991
138 1 0.119854 0.953939 0.665802
1940 1 0.213181 0.807721 0.678735
1479 1 0.333978 0.854529 0.652952
247 1 0.275654 0.727754 0.636463
516 1 0.497775 0.191829 0.88419
843 1 0.0244107 0.0558715 0.629954
686 1 0.30722 0.925078 0.561451
1691 1 0.111298 0.0279884 0.799396
394 1 0.0243585 0.43714 0.81081
1711 1 0.450034 0.862063 0.595647
465 1 0.441184 0.513616 0.719999
298 1 0.113938 0.0628189 0.698608
1819 1 0.239623 0.992517 0.726408
428 1 0.266981 0.947204 0.620149
1789 1 0.456919 0.283727 0.941717
191 1 0.250602 0.139917 0.757296
1374 1 0.291369 0.361836 0.739338
1688 1 0.21139 0.00304116 0.619446
496 1 0.275241 0.155485 0.82757
954 1 0.17962 0.126765 0.511728
202 1 0.100355 0.346829 0.544694
1472 1 0.305481 0.201732 0.925507
1628 1 0.476905 0.976607 0.50057
1365 1 0.164276 0.62407 0.556763
692 1 0.147552 0.284473 0.829918
1559 1 0.0387456 0.478815 0.640125
260 1 0.281478 0.362563 0.603499
1622 1 0.181872 0.460951 0.768674
64 1 0.221077 0.247452 0.648517
725 1 0.401901 0.463812 0.858152
1706 1 0.151056 0.371366 0.602041
1221 1 0.164726 0.427803 0.530616
1373 1 0.341048 0.649016 0.738991
739 1 0.482973 0.268666 0.673392
1467 1 0.316425 0.64513 0.897821
492 1 0.376627 0.588912 0.767464
2032 1 0.171192 0.869948 0.566956
1299 1 0.246063 0.681413 0.837821
826 1 0.202583 0.653511 0.676594
264 1 0.272146 0.506599 0.604152
782 1 0.249221 0.660659 0.75777
455 1 0.404161 0.132271 0.90582
386 1 0.222833 0.924675 0.755069
372 1 0.20083 0.8162 0.836926
216 1 0.498729 0.584334 0.903421
172 1 0.497666 0.271148 0.537376
1818 1 0.459985 0.203376 0.520591
193 1 0.0900369 0.898205 0.74943
1786 1 0.235141 0.547877 0.813341
731 1 0.270561 0.0125462 0.88234
101 1 0.327752 0.607362 0.822112
953 1 0.344113 0.695308 0.678876
137 1 0.168594 0.851591 0.729715
1366 1 0.244309 0.733301 0.926234
1598 1 0.0556659 0.803015 0.938124
1199 1 0.324735 0.741498 0.895279
1680 1 0.123389 0.204365 0.598308
640 1 0.246172 0.810379 0.916348
1637 1 0.135959 0.138262 0.572325
1760 1 0.429333 0.12074 0.523796
2019 1 0.238547 0.788923 0.523895
1944 1 0.467745 0.425234 0.835191
228 1 0.341376 0.184511 0.807259
1465 1 0.496521 0.857668 0.716272
1961 1 0.157964 0.225055 0.771326
1174 1 0.100301 0.986903 0.940936
1952 1 0.190655 0.856336 0.902825
1133 1 0.324802 0.983863 0.511864
1128 1 0.217397 0.146248 0.90673
136 1 0.0510315 0.0374672 0.760655
932 1 0.309279 0.938887 0.825968
1389 1 0.334778 0.14373 0.868468
611 1 0.106905 0.0719402 0.54722
948 1 0.141043 0.894107 0.856469
197 1 0.150752 0.419363 0.875185
529 1 0.204031 0.266207 0.719085
1729 1 0.364232 0.274778 0.837334
40 1 0.401407 0.229153 0.777282
508 1 0.373635 0.0644895 0.746662
379 1 0.346598 0.404449 0.70703
352 1 0.0840621 0.338991 0.623026
549 1 0.167731 0.49117 0.851754
830 1 0.417207 0.522442 0.89706
1715 1 0.216447 0.619449 0.80865
1067 1 0.154927 0.0309066 0.980384
1634 1 0.0479131 0.508983 0.719645
351 1 0.147316 0.450349 0.599917
966 1 0.0287727 0.875734 0.698754
1515 1 0.126647 0.520896 0.903888
770 1 0.196045 0.560569 0.872039
1081 1 0.439693 0.363887 0.943536
604 1 0.159394 0.547432 0.782116
1629 1 0.358402 0.525455 0.838508
1011 1 0.249892 0.580579 0.671148
890 1 0.494645 0.250717 0.830584
288 1 0.0292533 0.366042 0.886919
1032 1 0.0197362 0.605352 0.740442
896 1 0.115628 0.486162 0.735952
1674 1 0.447304 0.499162 0.629802
461 1 0.494079 0.417528 0.918086
389 1 0.18874 0.62063 0.920156
110 1 0.372404 0.755895 0.827835
741 1 0.196339 0.668684 0.975506
1111 1 0.400669 0.742272 0.921168
1913 1 0.325898 0.242442 0.978452
661 1 0.373212 0.190054 0.523148
1135 1 0.249623 0.564729 0.544596
719 1 0.329715 0.907363 0.755407
667 1 0.416949 0.0244566 0.818652
239 1 0.32266 0.697272 0.834628
1362 1 0.312886 0.89043 0.898596
1392 1 0.200092 0.0689169 0.735427
643 1 0.338821 0.971638 0.664218
357 1 0.253086 0.71942 0.710346
1170 1 0.420229 0.600067 0.848704
2016 1 0.492166 0.664805 0.982773
1009 1 0.389854 0.551205 0.995937
759 1 0.233287 0.982828 0.972989
878 1 0.137105 0.175379 0.860548
1159 1 0.0125299 0.106229 0.855098
647 1 0.344372 0.605118 0.516172
1747 1 0.118153 0.112889 0.786988
96 1 0.300105 0.0734167 0.576864
133 1 0.0533196 0.139143 0.704031
866 1 0.256866 0.980147 0.799127
16 1 0.412323 0.108272 0.983837
1134 1 0.403589 0.439955 0.927026
13 1 0.349155 0.0814699 0.520121
2004 1 0.0636063 0.0486074 0.869947
2043 1 0.0882234 0.12221 0.876455
1158 1 0.433037 0.293971 0.828541