ITEM: TIMESTEP
100000
ITEM: NUMBER OF ATOMS
2048
ITEM: BOX BOUNDS pp pp pp
0.0000000000000000e+00 1.1093780389610155e+01
0.0000000000000000e+00 1.1093780389610155e+01
0.0000000000000000e+00 1.1093780389610155e+01
ITEM: ATOMS id type xs ys zs
3 1 0.0629366 0.00279494 0.0624317
6 1 0.188149 0.0616448 0.00264879
16 1 0.376456 0.0619555 0.0582522
15 1 0.436371 0.00260626 0.060002
24 1 0.626443 0.06115 0.0587989
23 1 0.689189 0.00146074 0.0610478
26 1 0.811279 0.0615233 3.9015e-05
32 1 0.871164 0.0617635 0.0603617
4 1 0.99536 0.0613686 0.0622071
2 1 0.0650951 0.0632993 0.000584209
37 1 0.12633 0.12353 0.000621854
10 1 0.311696 0.0662762 0.0018614
51 1 0.561404 0.124405 0.0605216
59 1 0.810892 0.122161 0.058992
63 1 0.932658 0.121692 0.0620659
33 1 0.997816 0.118235 0.00020349
36 1 0.00167384 0.186821 0.0621447
38 1 0.189239 0.187285 0.00313653
41 1 0.249164 0.126436 0.00177284
43 1 0.310633 0.127665 0.0612078
45 1 0.380832 0.12709 0.00128966
46 1 0.438123 0.187366 0.00128484
50 1 0.565039 0.186616 0.00615578
55 1 0.690283 0.131684 0.0623177
60 1 0.752275 0.187335 0.0591032
64 1 0.870366 0.185233 0.0614254
62 1 0.934057 0.18466 0.0041748
40 1 0.125119 0.188596 0.0613939
69 1 0.127685 0.248304 0.000386276
42 1 0.31548 0.188812 0.00265815
83 1 0.561449 0.249953 0.0620278
85 1 0.625822 0.249194 0.000190607
87 1 0.691726 0.247207 0.0621367
54 1 0.687393 0.188945 0.000128496
89 1 0.750115 0.248955 0.000145942
93 1 0.871945 0.249367 0.000376811
66 1 0.0612986 0.309843 0.00349919
71 1 0.187983 0.250749 0.0575899
79 1 0.438546 0.253138 0.0603082
82 1 0.562173 0.309076 0.00190747
91 1 0.811224 0.250857 0.0608668
94 1 0.940857 0.312319 0.000939547
97 1 0.00289973 0.370646 0.00155955
99 1 0.0624863 0.374472 0.0599519
72 1 0.126101 0.312862 0.0609559
70 1 0.186555 0.312882 9.71546e-05
76 1 0.251079 0.313868 0.0624392
80 1 0.374046 0.314214 0.0606412
115 1 0.564092 0.374841 0.0610344
119 1 0.688539 0.37106 0.0620811
121 1 0.751897 0.373447 0.00154315
96 1 0.868216 0.313186 0.0574681
125 1 0.874459 0.373725 0.00249763
127 1 0.936802 0.373954 0.0622358
104 1 0.118876 0.435407 0.0620164
101 1 0.126657 0.376124 0.000298678
103 1 0.186114 0.379886 0.0619963
107 1 0.315309 0.376414 0.0616319
116 1 0.499711 0.437326 0.0624586
120 1 0.621736 0.436264 0.0614402
118 1 0.691376 0.433576 0.00240585
124 1 0.74824 0.436434 0.0616139
126 1 0.939195 0.435071 0.000774808
100 1 0.999855 0.437348 0.059768
1031 1 0.185678 0.499461 0.0593881
108 1 0.247508 0.438123 0.0610469
1035 1 0.315561 0.497473 0.0593386
114 1 0.558294 0.43885 0.000130114
122 1 0.812149 0.439345 0.000397289
1053 1 0.876354 0.499846 8.05228e-05
1055 1 0.939739 0.498609 0.0597251
134 1 0.18912 0.0598993 0.121785
12 1 0.251292 0.060156 0.0637964
137 1 0.249347 0.000209586 0.122363
138 1 0.315169 0.0620616 0.122742
141 1 0.374471 0.00317585 0.121732
20 1 0.501961 0.0588838 0.0637442
146 1 0.567804 0.0605369 0.124479
28 1 0.747037 0.0623785 0.0628558
154 1 0.809703 0.0593815 0.121372
157 1 0.871164 0.00332778 0.124551
35 1 0.0642363 0.124625 0.0626795
8 1 0.128523 0.0625273 0.0642887
142 1 0.439844 0.0639572 0.122216
181 1 0.623253 0.122553 0.120829
150 1 0.686462 0.0656094 0.122378
189 1 0.871844 0.122242 0.122619
158 1 0.935512 0.0630422 0.12403
161 1 0.00153999 0.129766 0.122145
39 1 0.189055 0.128928 0.0636173
48 1 0.375269 0.185862 0.0642199
47 1 0.432614 0.127012 0.0655873
52 1 0.497205 0.186636 0.0667113
177 1 0.500771 0.125023 0.124277
190 1 0.936987 0.18562 0.120926
67 1 0.0615191 0.24895 0.0651478
166 1 0.186429 0.190211 0.120797
44 1 0.249125 0.191102 0.0644846
75 1 0.318857 0.24798 0.0630515
56 1 0.629675 0.189335 0.062564
221 1 0.873211 0.247454 0.121383
95 1 0.934886 0.248049 0.0628268
194 1 0.0584479 0.311923 0.123117
197 1 0.128462 0.253088 0.123623
201 1 0.250997 0.255036 0.124866
84 1 0.502732 0.31039 0.0632624
88 1 0.627095 0.310978 0.062875
213 1 0.626957 0.250127 0.122838
218 1 0.81423 0.311389 0.119914
222 1 0.934594 0.309009 0.124401
68 1 0.998457 0.307573 0.0641005
225 1 0.00101547 0.374781 0.124062
198 1 0.187766 0.319078 0.120666
237 1 0.376885 0.373048 0.124691
206 1 0.437555 0.312989 0.123626
92 1 0.752177 0.313447 0.0662196
226 1 0.061418 0.437407 0.120035
233 1 0.249777 0.376433 0.124528
111 1 0.438677 0.375145 0.0625809
245 1 0.623403 0.376472 0.124569
123 1 0.812686 0.378185 0.0627654
253 1 0.873556 0.375878 0.123662
1153 1 0.000256873 0.499185 0.122396
1157 1 0.123991 0.498056 0.120468
230 1 0.186335 0.438538 0.121636
1161 1 0.251807 0.499509 0.116966
112 1 0.378496 0.438307 0.0641729
242 1 0.557775 0.438492 0.123139
1173 1 0.625126 0.496752 0.124261
246 1 0.687273 0.438902 0.124415
1047 1 0.687336 0.497704 0.063996
1051 1 0.811462 0.497438 0.0692485
128 1 0.877668 0.438138 0.0625807
136 1 0.129649 0.0621971 0.186996
135 1 0.187281 0.000167414 0.185374
140 1 0.253113 0.0579112 0.185384
139 1 0.315003 0.000221463 0.18413
144 1 0.378925 0.0614676 0.187291
148 1 0.501177 0.0576184 0.181415
149 1 0.624285 0.000354779 0.125237
152 1 0.627189 0.0616392 0.18644
155 1 0.80557 0.00228886 0.184153
160 1 0.869317 0.0596966 0.187308
132 1 0.999416 0.0586952 0.184851
163 1 0.0577017 0.124287 0.186044
130 1 0.0677532 0.0646459 0.126658
173 1 0.372697 0.123181 0.12677
175 1 0.440633 0.122608 0.186725
179 1 0.563107 0.121165 0.186717
185 1 0.750145 0.124671 0.125788
156 1 0.75065 0.0632232 0.185731
162 1 0.0640355 0.185988 0.125351
165 1 0.127441 0.125897 0.125172
168 1 0.126064 0.187103 0.186075
167 1 0.189515 0.12538 0.184128
169 1 0.249149 0.125489 0.126145
172 1 0.253693 0.185198 0.185589
184 1 0.627728 0.186062 0.184221
191 1 0.939244 0.125095 0.183708
193 1 0.000644936 0.245638 0.125954
195 1 0.0631553 0.248753 0.185189
170 1 0.31534 0.18753 0.128229
205 1 0.37715 0.247458 0.129772
174 1 0.438085 0.187657 0.130829
178 1 0.561669 0.187645 0.125349
182 1 0.691307 0.188838 0.12538
186 1 0.811776 0.189342 0.127909
192 1 0.872992 0.188212 0.185674
223 1 0.933499 0.248122 0.185133
200 1 0.1258 0.311571 0.18012
202 1 0.314725 0.309934 0.128102
209 1 0.502166 0.251765 0.130694
214 1 0.686979 0.310507 0.128247
217 1 0.753002 0.251521 0.128301
224 1 0.875441 0.311183 0.185987
227 1 0.0578167 0.370803 0.186208
204 1 0.251586 0.314955 0.187289
210 1 0.562814 0.314171 0.125532
216 1 0.622806 0.316285 0.187394
255 1 0.934786 0.373508 0.183302
229 1 0.126422 0.376319 0.126008
232 1 0.129318 0.437246 0.182891
236 1 0.249056 0.435662 0.185392
234 1 0.314977 0.437389 0.125565
240 1 0.374768 0.431662 0.18604
241 1 0.499566 0.376863 0.126897
249 1 0.746012 0.377967 0.129105
250 1 0.809534 0.436405 0.131292
256 1 0.875871 0.434994 0.186102
228 1 0.997335 0.433699 0.183898
1159 1 0.186125 0.499016 0.183446
1165 1 0.373442 0.497737 0.12777
1167 1 0.435164 0.497003 0.18741
238 1 0.436599 0.438371 0.126474
244 1 0.498699 0.438928 0.185688
1177 1 0.751289 0.498942 0.125482
1181 1 0.875758 0.499458 0.127749
254 1 0.936049 0.438321 0.125188
1183 1 0.938779 0.495181 0.186885
258 1 0.0660128 0.062057 0.245714
261 1 0.124149 0.00561562 0.248476
266 1 0.316092 0.0615017 0.245767
143 1 0.434903 0.000211413 0.189082
274 1 0.564003 0.0580853 0.247964
277 1 0.625854 0.0014191 0.249621
286 1 0.935126 0.0589251 0.247193
257 1 0.999299 0.00143583 0.249166
262 1 0.189522 0.0639013 0.248992
171 1 0.314325 0.12449 0.190864
301 1 0.377616 0.123204 0.248558
183 1 0.685946 0.12457 0.189097
317 1 0.875684 0.12147 0.245846
289 1 0.996481 0.123696 0.249577
293 1 0.124982 0.125114 0.248978
297 1 0.251009 0.125498 0.245624
176 1 0.377884 0.186467 0.188702
313 1 0.750251 0.129008 0.248505
187 1 0.814796 0.127238 0.187933
321 1 0.003696 0.248345 0.246938
325 1 0.130101 0.249729 0.24734
294 1 0.192853 0.190521 0.243829
207 1 0.438714 0.24947 0.192248
302 1 0.439948 0.187517 0.249187
180 1 0.504377 0.187839 0.188613
211 1 0.5665 0.249026 0.188072
310 1 0.685317 0.189636 0.24965
188 1 0.750989 0.189116 0.189259
164 1 0.998734 0.189138 0.193254
199 1 0.192776 0.251974 0.187783
203 1 0.311999 0.251214 0.189837
208 1 0.378294 0.311798 0.188392
341 1 0.624366 0.250534 0.248409
215 1 0.6884 0.250447 0.188703
342 1 0.684372 0.310831 0.246607
219 1 0.815876 0.251008 0.188073
196 1 0.996212 0.311081 0.188561
357 1 0.124453 0.372267 0.246516
326 1 0.189502 0.313269 0.249275
231 1 0.186575 0.372586 0.189073
235 1 0.313045 0.369722 0.189492
239 1 0.438879 0.374889 0.190061
212 1 0.498511 0.313447 0.189327
220 1 0.748948 0.313421 0.188026
251 1 0.813306 0.371958 0.190318
381 1 0.873831 0.371937 0.249777
353 1 0.99811 0.368956 0.248062
354 1 0.0597916 0.431678 0.249697
358 1 0.186145 0.43667 0.246529
243 1 0.563254 0.376574 0.193929
247 1 0.682795 0.377388 0.190036
377 1 0.750774 0.376846 0.247951
382 1 0.937043 0.431762 0.249683
1155 1 0.0635212 0.499294 0.187723
1285 1 0.124081 0.497045 0.246251
362 1 0.309661 0.43948 0.249758
366 1 0.434251 0.438881 0.247074
1301 1 0.61979 0.498976 0.246563
248 1 0.622384 0.437856 0.188184
252 1 0.747243 0.443486 0.192844
378 1 0.811171 0.441129 0.248832
1179 1 0.813202 0.49971 0.189059
1281 1 0.997068 0.493265 0.24717
259 1 0.0634147 0.00217654 0.307886
267 1 0.309059 0.0027251 0.309694
269 1 0.378832 0.00209889 0.252525
270 1 0.440096 0.0622006 0.250814
273 1 0.499466 0.00152528 0.254003
275 1 0.56615 0.000479584 0.311333
278 1 0.690245 0.0614799 0.250086
283 1 0.816171 0.00211409 0.309276
287 1 0.938273 0.00474594 0.312098
260 1 0.00437963 0.0631763 0.310802
291 1 0.0625055 0.123318 0.306732
268 1 0.253266 0.0653212 0.306595
299 1 0.313468 0.123946 0.311243
305 1 0.502093 0.123575 0.251936
309 1 0.624812 0.118646 0.251654
282 1 0.81097 0.0625773 0.251101
288 1 0.87815 0.0635334 0.309409
295 1 0.186999 0.131034 0.308194
298 1 0.312296 0.186789 0.254155
315 1 0.815392 0.126527 0.307215
320 1 0.875194 0.187452 0.311117
318 1 0.937736 0.185694 0.250652
290 1 0.0651266 0.192403 0.2509
323 1 0.0650587 0.24851 0.311557
329 1 0.248778 0.249185 0.253205
333 1 0.37641 0.248301 0.252133
308 1 0.501487 0.190608 0.308232
306 1 0.564547 0.188702 0.253429
312 1 0.625788 0.192789 0.311228
345 1 0.750464 0.249601 0.253486
314 1 0.813153 0.190312 0.250667
322 1 0.0648234 0.311694 0.251423
328 1 0.129614 0.311234 0.311168
330 1 0.31186 0.310252 0.250251
331 1 0.314325 0.251285 0.312343
335 1 0.437959 0.251648 0.311654
337 1 0.499813 0.252161 0.250608
339 1 0.563737 0.252026 0.309174
343 1 0.689047 0.25227 0.309968
346 1 0.810668 0.311322 0.253705
349 1 0.873213 0.253424 0.251581
361 1 0.251311 0.373988 0.252339
365 1 0.373449 0.37341 0.254894
334 1 0.439346 0.313953 0.251088
338 1 0.564365 0.314039 0.252318
344 1 0.628422 0.312526 0.312345
375 1 0.691182 0.373967 0.307704
350 1 0.937532 0.314588 0.250347
360 1 0.126639 0.433597 0.307695
369 1 0.50071 0.375643 0.251158
373 1 0.624877 0.376596 0.253933
384 1 0.876478 0.431853 0.31176
1283 1 0.0644138 0.49331 0.31234
1287 1 0.186636 0.496438 0.311509
1289 1 0.247148 0.498395 0.251296
1293 1 0.37374 0.497777 0.252952
368 1 0.369609 0.438167 0.31208
1295 1 0.43844 0.494576 0.307778
1297 1 0.500173 0.497307 0.251921
370 1 0.562047 0.439347 0.250565
374 1 0.684481 0.442002 0.25411
380 1 0.746766 0.437934 0.311108
1311 1 0.931051 0.498225 0.312379
389 1 0.122776 0.0007355 0.372108
263 1 0.187453 0.00286886 0.313751
393 1 0.248178 0.000630288 0.37496
394 1 0.312652 0.0623128 0.370582
397 1 0.372094 0.00249769 0.371318
398 1 0.437099 0.0617398 0.372709
402 1 0.563758 0.0613489 0.373682
280 1 0.625898 0.0614755 0.313268
279 1 0.689023 0.00268194 0.31547
413 1 0.878244 0.000633585 0.374219
417 1 0.00434644 0.121197 0.374023
264 1 0.125453 0.0636367 0.316112
390 1 0.191489 0.0644893 0.374123
272 1 0.375101 0.0630934 0.313358
429 1 0.376768 0.122542 0.373616
276 1 0.49894 0.0656933 0.313289
437 1 0.628234 0.124566 0.373546
284 1 0.750176 0.0626928 0.316565
410 1 0.814613 0.0640139 0.372403
319 1 0.940091 0.123464 0.314103
414 1 0.934135 0.066526 0.373427
292 1 0.00228359 0.185011 0.313679
300 1 0.251012 0.185096 0.315052
426 1 0.313513 0.187432 0.372604
304 1 0.376329 0.184472 0.312771
303 1 0.442548 0.12972 0.313107
307 1 0.56505 0.128988 0.313653
311 1 0.688285 0.129949 0.313805
445 1 0.873807 0.12751 0.370212
296 1 0.122911 0.187752 0.31317
453 1 0.124194 0.248408 0.373116
430 1 0.439407 0.19414 0.374915
465 1 0.502977 0.249577 0.370413
434 1 0.567539 0.189246 0.372681
316 1 0.750958 0.191664 0.312727
442 1 0.812986 0.188389 0.372132
477 1 0.87721 0.245614 0.373736
450 1 0.0627572 0.309916 0.372859
327 1 0.185845 0.251143 0.31483
336 1 0.376575 0.311188 0.314324
461 1 0.377939 0.253797 0.374791
340 1 0.497842 0.311786 0.312997
469 1 0.622883 0.25219 0.369669
470 1 0.688348 0.311029 0.373209
347 1 0.811416 0.251849 0.313781
351 1 0.939314 0.250574 0.314507
478 1 0.938446 0.307229 0.373474
324 1 0.999231 0.309725 0.312505
355 1 0.0630593 0.371065 0.313525
359 1 0.186798 0.372932 0.313648
332 1 0.248722 0.314067 0.313764
363 1 0.3117 0.371939 0.313196
371 1 0.563148 0.371286 0.312619
501 1 0.62865 0.373225 0.373771
348 1 0.749862 0.313493 0.313973
474 1 0.814182 0.314381 0.371055
352 1 0.876489 0.313078 0.315947
383 1 0.938417 0.372531 0.315037
482 1 0.0661472 0.433705 0.373548
486 1 0.190132 0.437184 0.373117
364 1 0.249098 0.433934 0.313742
493 1 0.368001 0.377488 0.374488
367 1 0.436442 0.376504 0.312996
379 1 0.809942 0.383193 0.314259
356 1 0.998734 0.433049 0.312723
1291 1 0.309968 0.498776 0.312798
372 1 0.500194 0.438012 0.314617
1425 1 0.495385 0.499333 0.374548
376 1 0.623873 0.444312 0.312644
1437 1 0.874481 0.496822 0.37029
395 1 0.310774 0.000335843 0.436571
400 1 0.378732 0.0614669 0.435526
407 1 0.690016 0.000967333 0.436736
409 1 0.752172 0.00362443 0.376161
416 1 0.876419 0.0622221 0.435802
386 1 0.065439 0.0680135 0.375792
396 1 0.248439 0.0625439 0.436437
427 1 0.31807 0.124073 0.435126
408 1 0.623658 0.0646191 0.434897
406 1 0.689066 0.0642676 0.379174
443 1 0.815889 0.118851 0.437097
418 1 0.0638729 0.186474 0.37703
421 1 0.128546 0.126713 0.375814
425 1 0.251106 0.12619 0.378213
431 1 0.441438 0.130053 0.435185
433 1 0.502687 0.126984 0.375363
440 1 0.6252 0.184805 0.433147
439 1 0.687254 0.125982 0.436993
441 1 0.747745 0.12615 0.377145
446 1 0.938492 0.184662 0.376675
449 1 0.00055859 0.248391 0.375137
422 1 0.185668 0.188878 0.376284
459 1 0.314004 0.2488 0.435208
436 1 0.501972 0.192493 0.433102
438 1 0.69052 0.191459 0.375622
479 1 0.935436 0.248501 0.435843
451 1 0.0633549 0.252975 0.436596
455 1 0.189508 0.251714 0.436148
457 1 0.249491 0.25229 0.375021
460 1 0.252606 0.312078 0.437021
462 1 0.439435 0.311977 0.376333
467 1 0.561497 0.252976 0.437208
473 1 0.751828 0.252313 0.378064
452 1 0.00142298 0.313409 0.433845
481 1 0.00187795 0.374075 0.377442
454 1 0.184265 0.314922 0.379755
458 1 0.31172 0.315605 0.377752
495 1 0.437591 0.373828 0.437459
466 1 0.563592 0.31651 0.377145
472 1 0.627159 0.313955 0.43576
505 1 0.751601 0.371706 0.378075
476 1 0.751752 0.312996 0.436255
507 1 0.811769 0.371876 0.436184
480 1 0.872826 0.312674 0.436616
509 1 0.874272 0.372298 0.375482
511 1 0.936791 0.374427 0.436168
483 1 0.0615597 0.376632 0.434518
485 1 0.127031 0.377728 0.376316
489 1 0.250191 0.375053 0.377701
494 1 0.43438 0.435673 0.376252
497 1 0.50269 0.377957 0.377637
499 1 0.561647 0.381628 0.43676
502 1 0.689004 0.435099 0.376159
508 1 0.749602 0.432423 0.437354
506 1 0.81364 0.437048 0.376172
510 1 0.93807 0.435876 0.375602
1413 1 0.123158 0.498206 0.378986
1415 1 0.186334 0.499743 0.437228
1417 1 0.248182 0.498936 0.377974
490 1 0.30752 0.439722 0.380265
498 1 0.562933 0.442144 0.37633
1433 1 0.751917 0.497732 0.376684
484 1 0.999845 0.44073 0.433792
513 1 0.00407004 0.000405812 0.498837
387 1 0.0633906 0.000449147 0.43775
517 1 0.122963 0.00156652 0.499773
391 1 0.187822 0.0039833 0.437592
404 1 0.500349 0.0564183 0.43828
530 1 0.561696 0.0604239 0.49881
412 1 0.751402 0.0622416 0.440502
415 1 0.934499 0.00175359 0.441457
392 1 0.123747 0.0635578 0.438225
553 1 0.255563 0.124687 0.497627
522 1 0.315668 0.0640383 0.494835
557 1 0.380454 0.123083 0.497326
561 1 0.496877 0.120711 0.499493
435 1 0.55772 0.122162 0.438689
388 1 0.996433 0.0653301 0.438954
420 1 2.21531e-05 0.18364 0.438504
419 1 0.064137 0.125756 0.441259
424 1 0.125327 0.187363 0.440104
423 1 0.189289 0.127634 0.438871
428 1 0.246676 0.187335 0.440343
558 1 0.439354 0.186412 0.498497
569 1 0.75345 0.125591 0.499955
448 1 0.872705 0.185805 0.440251
447 1 0.936463 0.126557 0.44183
546 1 0.0610622 0.191817 0.495684
554 1 0.313375 0.191701 0.493579
432 1 0.375996 0.190697 0.437794
593 1 0.498687 0.247348 0.499457
597 1 0.626494 0.247715 0.495624
444 1 0.75967 0.187709 0.440743
586 1 0.311645 0.30819 0.497252
589 1 0.378007 0.250633 0.498034
464 1 0.374959 0.310285 0.440004
463 1 0.441746 0.25034 0.438768
594 1 0.55955 0.310076 0.499682
471 1 0.689974 0.252434 0.438459
475 1 0.814176 0.252179 0.441018
577 1 0.991267 0.253864 0.49613
578 1 0.0585512 0.314559 0.497776
456 1 0.124195 0.316554 0.440141
487 1 0.185676 0.373932 0.440412
491 1 0.313571 0.372339 0.439243
468 1 0.500353 0.314954 0.438426
629 1 0.620686 0.371866 0.498411
503 1 0.687942 0.373935 0.440305
606 1 0.933298 0.318255 0.499697
488 1 0.125323 0.436009 0.440375
613 1 0.121804 0.375322 0.498651
492 1 0.245597 0.435837 0.439074
496 1 0.373238 0.434929 0.438104
500 1 0.498251 0.437382 0.441522
504 1 0.628328 0.436324 0.437898
630 1 0.687604 0.436788 0.498585
637 1 0.873717 0.379773 0.496843
638 1 0.938541 0.437068 0.494591
1411 1 0.0652536 0.497518 0.437861
1541 1 0.121659 0.497964 0.498164
1423 1 0.437611 0.494952 0.437847
626 1 0.566729 0.438123 0.498199
634 1 0.810839 0.440021 0.499211
1435 1 0.809614 0.499332 0.440532
512 1 0.876415 0.43917 0.438061
521 1 0.249864 0.00163799 0.501171
523 1 0.309677 0.00343019 0.562221
526 1 0.437423 0.0596587 0.500058
532 1 0.499824 0.0622958 0.55976
533 1 0.62782 3.00349e-05 0.501144
535 1 0.691779 0.00140521 0.561522
538 1 0.814093 0.0588645 0.501469
544 1 0.874981 0.0619324 0.561678
514 1 0.060799 0.0651369 0.500258
549 1 0.127133 0.121596 0.502714
518 1 0.186321 0.0647107 0.50177
528 1 0.372684 0.0633238 0.556559
563 1 0.561524 0.123742 0.561189
534 1 0.69139 0.0649002 0.503503
540 1 0.751671 0.0637505 0.561846
542 1 0.936694 0.0632955 0.501405
545 1 0.00100317 0.125739 0.502507
550 1 0.185831 0.18641 0.503142
560 1 0.375359 0.187218 0.560506
564 1 0.50224 0.186151 0.56145
565 1 0.625183 0.126767 0.50051
566 1 0.686644 0.186712 0.500428
567 1 0.682173 0.126444 0.562428
570 1 0.813694 0.183972 0.502858
573 1 0.875624 0.125922 0.501709
574 1 0.936949 0.184624 0.501888
579 1 0.0585248 0.249024 0.560493
552 1 0.122297 0.190699 0.560836
556 1 0.252723 0.188151 0.561901
585 1 0.245801 0.24772 0.503526
562 1 0.561399 0.188675 0.500198
568 1 0.619596 0.188014 0.558984
601 1 0.747262 0.24554 0.5025
603 1 0.812675 0.249028 0.560146
605 1 0.878648 0.249402 0.500504
581 1 0.12697 0.253154 0.500324
582 1 0.189655 0.312209 0.504543
587 1 0.314668 0.251993 0.56005
591 1 0.435971 0.251542 0.561444
590 1 0.438506 0.311854 0.500309
596 1 0.497674 0.311164 0.561753
598 1 0.685855 0.311044 0.501808
588 1 0.251118 0.31435 0.558555
617 1 0.252587 0.374987 0.501828
621 1 0.374505 0.374797 0.500864
623 1 0.440326 0.372013 0.56012
625 1 0.500321 0.37186 0.500809
600 1 0.625008 0.312785 0.55941
631 1 0.68599 0.372977 0.562026
633 1 0.748799 0.374863 0.50466
602 1 0.81404 0.313289 0.500374
608 1 0.874283 0.318136 0.560537
580 1 0.996541 0.313204 0.559376
610 1 0.0589665 0.436534 0.500358
614 1 0.18411 0.437248 0.501197
619 1 0.315233 0.375666 0.561909
618 1 0.316044 0.437127 0.501839
622 1 0.436045 0.435204 0.504172
628 1 0.499773 0.435752 0.562017
627 1 0.564395 0.376906 0.561074
632 1 0.624673 0.436715 0.562227
609 1 0.999439 0.375472 0.502339
616 1 0.118969 0.437994 0.56215
1543 1 0.181552 0.49865 0.561484
620 1 0.247353 0.44068 0.562137
1545 1 0.246573 0.495885 0.501189
1549 1 0.376555 0.49935 0.502288
1553 1 0.495696 0.497411 0.505454
1555 1 0.564836 0.49909 0.561895
640 1 0.874217 0.441626 0.559663
612 1 0.998368 0.441439 0.560544
515 1 0.0597961 0.00327091 0.566151
520 1 0.123743 0.0619691 0.562989
519 1 0.185357 0.00316924 0.564561
649 1 0.249399 0.0014387 0.624944
527 1 0.438833 0.00463086 0.565994
531 1 0.563526 0.00287991 0.563864
536 1 0.62554 0.0601274 0.56312
666 1 0.812185 0.0550832 0.624276
543 1 0.937237 0.00340845 0.563375
516 1 0.997714 0.0595196 0.565478
551 1 0.18789 0.123712 0.56477
524 1 0.251721 0.0669644 0.564244
650 1 0.315464 0.0684368 0.624924
559 1 0.440037 0.124411 0.564941
662 1 0.68965 0.0653791 0.618656
571 1 0.81277 0.122684 0.564959
575 1 0.940315 0.122027 0.563239
547 1 0.0644761 0.125361 0.565544
555 1 0.31609 0.127192 0.565693
689 1 0.500661 0.126288 0.623439
572 1 0.751065 0.186275 0.565477
576 1 0.873206 0.187236 0.56364
702 1 0.933548 0.185732 0.623306
548 1 0.999071 0.184691 0.564642
705 1 0.00110234 0.245876 0.62486
678 1 0.190568 0.189691 0.623819
686 1 0.438513 0.188315 0.623612
690 1 0.561225 0.187552 0.621929
725 1 0.625152 0.246607 0.623873
599 1 0.684213 0.248125 0.563
698 1 0.812807 0.189545 0.621776
607 1 0.934987 0.248049 0.563909
584 1 0.126678 0.31056 0.563718
583 1 0.187398 0.25022 0.564098
713 1 0.252699 0.253843 0.62253
717 1 0.376965 0.25129 0.622589
595 1 0.559601 0.251041 0.564626
726 1 0.685991 0.309217 0.624962
604 1 0.749588 0.3108 0.563417
706 1 0.0593781 0.31315 0.620469
710 1 0.185429 0.315742 0.624635
592 1 0.375058 0.316043 0.563506
753 1 0.502777 0.374639 0.620965
761 1 0.74965 0.373639 0.621823
734 1 0.936329 0.31749 0.621829
611 1 0.0608756 0.376702 0.563321
741 1 0.122433 0.375613 0.623109
615 1 0.182308 0.377693 0.562712
745 1 0.251809 0.375468 0.621869
624 1 0.376435 0.43655 0.562679
749 1 0.37821 0.380905 0.622341
635 1 0.81167 0.377391 0.563614
639 1 0.9369 0.378895 0.564188
1539 1 0.0609056 0.499938 0.562706
1669 1 0.123151 0.497476 0.624407
746 1 0.313613 0.438914 0.6226
1547 1 0.309873 0.499333 0.563695
750 1 0.439679 0.438208 0.623543
1559 1 0.688288 0.499825 0.565302
636 1 0.748377 0.439809 0.564202
766 1 0.934526 0.439251 0.622483
644 1 0.00139521 0.0599839 0.686598
648 1 0.125396 0.0614531 0.685533
646 1 0.188371 0.0596003 0.62632
652 1 0.249353 0.0610597 0.684897
653 1 0.372638 0.00192939 0.628094
660 1 0.506237 0.0611438 0.687037
670 1 0.936533 0.0613222 0.627978
641 1 0.997821 0.00135337 0.62844
642 1 0.0627647 0.0658646 0.625025
675 1 0.0656602 0.122995 0.685553
654 1 0.438758 0.0639813 0.629676
658 1 0.565033 0.0625585 0.625091
673 1 0.998372 0.123218 0.627417
674 1 0.060968 0.187073 0.626147
677 1 0.128155 0.128576 0.625531
679 1 0.194984 0.126379 0.683138
681 1 0.251111 0.128968 0.625401
685 1 0.378625 0.127593 0.625784
692 1 0.498422 0.184951 0.685421
691 1 0.563986 0.125566 0.686656
693 1 0.623326 0.12531 0.625566
694 1 0.686862 0.184812 0.625724
695 1 0.68934 0.126449 0.683139
697 1 0.75288 0.126138 0.626547
701 1 0.871463 0.125637 0.625579
680 1 0.1261 0.190438 0.684528
682 1 0.315021 0.187636 0.631627
723 1 0.563008 0.247402 0.685388
729 1 0.749875 0.24889 0.625689
704 1 0.876238 0.190632 0.686986
708 1 0.000402174 0.307909 0.685746
709 1 0.120863 0.252836 0.62529
711 1 0.190647 0.253485 0.685837
715 1 0.314049 0.256142 0.681179
719 1 0.436404 0.250441 0.686528
718 1 0.439307 0.312212 0.625144
721 1 0.502962 0.251888 0.626908
722 1 0.568406 0.311289 0.630214
733 1 0.874253 0.25238 0.625848
739 1 0.0626149 0.371753 0.685881
714 1 0.315765 0.315977 0.625338
720 1 0.379502 0.317153 0.68453
724 1 0.498971 0.313649 0.685127
757 1 0.626888 0.369514 0.626126
759 1 0.685425 0.371637 0.687193
732 1 0.747629 0.313263 0.685499
730 1 0.811771 0.315232 0.625287
738 1 0.0630178 0.43647 0.628966
747 1 0.316298 0.378626 0.682318
751 1 0.438141 0.379039 0.683295
758 1 0.684727 0.434081 0.627506
764 1 0.750508 0.434762 0.687209
765 1 0.872781 0.37515 0.627574
737 1 0.998221 0.375372 0.626431
742 1 0.190049 0.43916 0.631107
1679 1 0.434937 0.497669 0.686561
754 1 0.566754 0.437865 0.626333
762 1 0.812869 0.438561 0.626276
768 1 0.874246 0.441423 0.686208
777 1 0.248962 0.00537652 0.746223
651 1 0.310264 0.00372493 0.688336
781 1 0.378076 0.00120599 0.749904
655 1 0.443013 0.00234336 0.688923
794 1 0.810846 0.0609396 0.748763
672 1 0.874953 0.0582106 0.688096
797 1 0.873922 0.000161665 0.74757
671 1 0.93885 2.7932e-05 0.687712
770 1 0.0645563 0.0646781 0.747175
774 1 0.185141 0.0630744 0.744914
778 1 0.311233 0.0653598 0.747977
656 1 0.376135 0.0664714 0.688334
664 1 0.628845 0.0632478 0.692277
668 1 0.747241 0.0646193 0.68894
699 1 0.809122 0.122435 0.690704
703 1 0.938785 0.122848 0.691761
802 1 0.0613243 0.184451 0.747031
805 1 0.129814 0.126694 0.745556
684 1 0.251108 0.187133 0.687931
809 1 0.24855 0.125233 0.7488
683 1 0.311582 0.125762 0.688468
688 1 0.375713 0.185766 0.689746
687 1 0.441361 0.126993 0.690208
818 1 0.563967 0.183679 0.747724
696 1 0.626983 0.184847 0.688354
822 1 0.688756 0.184332 0.749645
700 1 0.753254 0.186339 0.688503
825 1 0.74954 0.129032 0.747301
829 1 0.876274 0.126444 0.749934
676 1 0.00225461 0.189612 0.690542
707 1 0.0606516 0.249255 0.690901
806 1 0.187609 0.19067 0.747902
727 1 0.693263 0.248261 0.688809
857 1 0.750664 0.248504 0.749724
731 1 0.812459 0.248239 0.68787
826 1 0.813943 0.189192 0.749834
834 1 0.0605812 0.31004 0.749435
712 1 0.124762 0.311706 0.688789
841 1 0.247272 0.257156 0.746342
845 1 0.372455 0.252199 0.748778
846 1 0.438933 0.311263 0.74798
849 1 0.498572 0.250752 0.745448
850 1 0.563226 0.307191 0.746964
728 1 0.629336 0.305373 0.688107
858 1 0.813609 0.30665 0.746952
735 1 0.937987 0.251101 0.688312
838 1 0.183426 0.313242 0.749689
716 1 0.250047 0.319103 0.688711
873 1 0.244274 0.373992 0.748744
842 1 0.311753 0.314577 0.746245
755 1 0.565208 0.373487 0.693344
885 1 0.625896 0.372779 0.74934
763 1 0.809605 0.373943 0.689179
736 1 0.874873 0.314342 0.68992
767 1 0.93214 0.372405 0.689038
865 1 0.99974 0.374672 0.747181
740 1 0.00220523 0.437026 0.687717
744 1 0.121158 0.433917 0.688009
743 1 0.180999 0.375044 0.688104
870 1 0.184553 0.434161 0.747934
748 1 0.250066 0.435604 0.688247
877 1 0.375156 0.376582 0.747252
756 1 0.502672 0.437157 0.688327
760 1 0.625532 0.435085 0.687863
886 1 0.68621 0.437413 0.746396
893 1 0.868137 0.376223 0.749247
752 1 0.372132 0.439588 0.688498
882 1 0.565393 0.43928 0.74927
1813 1 0.627326 0.496433 0.749189
1817 1 0.748303 0.498323 0.74889
890 1 0.80896 0.439004 0.748826
1821 1 0.871668 0.497331 0.749616
894 1 0.935519 0.438612 0.748564
1793 1 0.998771 0.499253 0.746512
769 1 0.00349945 0.00103269 0.754622
771 1 0.0633162 0.000527972 0.811808
773 1 0.124633 0.000686234 0.751077
784 1 0.373252 0.0618782 0.81
783 1 0.437818 0.000283149 0.807443
800 1 0.870891 0.0590421 0.808065
798 1 0.938599 0.0595975 0.750875
780 1 0.247814 0.0652351 0.810001
811 1 0.313628 0.121858 0.812426
782 1 0.43897 0.0647082 0.75017
786 1 0.567289 0.0640394 0.752237
790 1 0.692043 0.0633565 0.753771
823 1 0.687774 0.124078 0.811116
796 1 0.750879 0.0644743 0.811341
831 1 0.934828 0.123428 0.810636
801 1 0.00254672 0.125318 0.754218
808 1 0.12412 0.184846 0.808101
807 1 0.185608 0.126053 0.809166
813 1 0.377536 0.126056 0.75219
814 1 0.43788 0.186589 0.752084
817 1 0.506787 0.125795 0.755176
820 1 0.500171 0.186015 0.811134
821 1 0.626965 0.127113 0.750703
827 1 0.813948 0.125851 0.811143
835 1 0.0624785 0.243707 0.809756
837 1 0.124709 0.249609 0.752788
812 1 0.248647 0.190451 0.811732
810 1 0.30952 0.192028 0.751145
816 1 0.374499 0.189142 0.812379
851 1 0.560692 0.245949 0.81005
853 1 0.62852 0.246694 0.751875
828 1 0.753272 0.188013 0.811858
861 1 0.877257 0.247709 0.751953
830 1 0.939013 0.18884 0.753119
833 1 0.99814 0.249183 0.753024
839 1 0.186041 0.252271 0.810279
843 1 0.309167 0.251155 0.809514
847 1 0.436194 0.252547 0.807769
852 1 0.502704 0.308964 0.808047
856 1 0.621086 0.30619 0.809675
854 1 0.686747 0.31079 0.751811
869 1 0.120284 0.370703 0.75178
848 1 0.376181 0.314177 0.810624
879 1 0.440289 0.374406 0.810378
887 1 0.68607 0.372507 0.808948
889 1 0.752125 0.371019 0.752817
864 1 0.877374 0.312853 0.808076
862 1 0.941008 0.312626 0.750043
895 1 0.93124 0.374431 0.810296
866 1 0.0614969 0.433874 0.751719
876 1 0.248689 0.434921 0.811237
874 1 0.307565 0.437133 0.75047
875 1 0.314008 0.377175 0.810335
878 1 0.438337 0.433577 0.750828
881 1 0.503605 0.377206 0.752577
896 1 0.874396 0.434318 0.811779
868 1 0.996863 0.434687 0.811296
1795 1 0.0611116 0.496985 0.809323
872 1 0.124145 0.438535 0.809334
1799 1 0.186504 0.496854 0.808561
880 1 0.375294 0.43793 0.807802
1809 1 0.498724 0.499876 0.750168
1815 1 0.688436 0.498713 0.811581
898 1 0.064577 0.0623681 0.874886
776 1 0.126046 0.0608205 0.81302
775 1 0.191771 0.00207122 0.812808
779 1 0.31199 0.000649367 0.817248
909 1 0.373438 0.000406636 0.874845
910 1 0.440944 0.0599441 0.873042
913 1 0.501648 0.00114936 0.874992
788 1 0.504702 0.060218 0.813797
787 1 0.562135 0.000739748 0.813534
792 1 0.629656 0.0588948 0.813005
791 1 0.689471 0.00192405 0.813264
795 1 0.810237 0.000655733 0.815054
922 1 0.813461 0.062213 0.874709
926 1 0.930948 0.0614559 0.874512
772 1 0.995439 0.0603345 0.814605
803 1 0.0671137 0.123081 0.813756
902 1 0.191551 0.0635601 0.871129
941 1 0.375447 0.121462 0.871271
819 1 0.566196 0.123315 0.815449
804 1 0.00116769 0.184491 0.813036
937 1 0.252321 0.125128 0.873241
815 1 0.437513 0.125392 0.814671
942 1 0.4359 0.187243 0.873637
946 1 0.562467 0.187491 0.873602
824 1 0.622929 0.186202 0.813097
832 1 0.878301 0.186693 0.817012
934 1 0.192434 0.192314 0.872384
938 1 0.314093 0.189568 0.872779
977 1 0.502994 0.249274 0.872767
950 1 0.686605 0.189663 0.873548
859 1 0.816686 0.243139 0.8152
962 1 0.0615536 0.310796 0.873911
840 1 0.127189 0.311429 0.812869
973 1 0.37258 0.253778 0.872141
974 1 0.441227 0.311632 0.872784
978 1 0.56484 0.309672 0.873034
855 1 0.685143 0.251031 0.817717
860 1 0.751229 0.308296 0.812592
986 1 0.812474 0.312268 0.872717
863 1 0.939754 0.250148 0.816106
836 1 0.000686906 0.312812 0.816387
867 1 0.0586038 0.371651 0.813453
997 1 0.123157 0.373513 0.874202
871 1 0.184617 0.374856 0.815508
844 1 0.24969 0.313299 0.81413
1001 1 0.249487 0.37355 0.87361