ITEM: TIMESTEP
100000
ITEM: NUMBER OF ATOMS
2048
ITEM: BOX BOUNDS pp pp pp
0.0000000000000000e+00 1.1351867295763070e+01
0.0000000000000000e+00 1.1351867295763070e+01
0.0000000000000000e+00 1.1351867295763070e+01
ITEM: ATOMS id type xs ys zs
66 1 0.0607112 0.31427 0.00110439
109 1 0.37623 0.377143 0.00689188
1439 1 0.93645 0.492902 0.440867
24 1 0.625824 0.0618973 0.0566422
1293 1 0.379249 0.497891 0.250571
98 1 0.0591349 0.436688 0.00729673
4 1 0.000962503 0.0611615 0.065014
1163 1 0.316211 0.493028 0.19263
129 1 0.998683 0.00291347 0.130301
117 1 0.621887 0.37625 0.00297011
267 1 0.308293 0.000374555 0.308224
59 1 0.805895 0.122701 0.0628209
32 1 0.867563 0.0605016 0.0589117
1157 1 0.125906 0.496483 0.127449
1285 1 0.121972 0.498684 0.252915
93 1 0.87155 0.248255 0.000231922
47 1 0.438932 0.117729 0.055275
141 1 0.380679 -0.000586201 0.123319
60 1 0.751344 0.182966 0.057939
97 1 0.000962733 0.37642 0.000615352
64 1 0.872643 0.181479 0.0632101
36 1 0.994923 0.189534 0.0614746
273 1 0.502522 0.00372574 0.25192
48 1 0.379495 0.176357 0.0653219
52 1 0.49222 0.181284 0.0632219
1435 1 0.81521 0.497294 0.438409
143 1 0.436311 0.00290697 0.187308
87 1 0.688561 0.247397 0.0643298
91 1 0.811099 0.244946 0.0595569
106 1 0.308011 0.439183 0.0073829
67 1 0.0608875 0.246945 0.0639228
72 1 0.126966 0.313347 0.0577744
71 1 0.186311 0.248941 0.0610321
80 1 0.375562 0.313484 0.0614271
1029 1 0.126474 0.495124 0.00103729
50 1 0.556311 0.188151 0.00559655
83 1 0.564677 0.248603 0.0678962
257 1 0.995331 0.00296565 0.252501
1171 1 0.56486 0.499076 0.188236
96 1 0.87253 0.311985 0.0644866
99 1 0.0629872 0.371718 0.0652058
82 1 0.561839 0.309265 0.00308932
84 1 0.499164 0.311636 0.0640523
115 1 0.562573 0.368035 0.0683004
92 1 0.75044 0.308711 0.0599995
123 1 0.807638 0.374236 0.0592034
133 1 0.119983 0.0040034 0.124259
104 1 0.126367 0.436591 0.063942
103 1 0.189503 0.374743 0.0642722
1431 1 0.686955 0.497536 0.440451
120 1 0.629056 0.435916 0.0678056
128 1 0.879215 0.438646 0.0602849
127 1 0.934823 0.374921 0.0590049
413 1 0.87287 0.00648774 0.373315
397 1 0.370665 0.00210647 0.374178
1291 1 0.31322 0.496223 0.31779
100 1 0.000538001 0.433451 0.0665247
77 1 0.372882 0.250179 0.00261986
8 1 0.123226 0.0649264 0.0689518
12 1 0.24635 0.0593445 0.0683653
512 1 0.871842 0.437738 0.437257
16 1 0.375841 0.0607922 0.0670432
606 1 0.933676 0.318404 0.497654
573 1 0.875516 0.124079 0.497684
28 1 0.746867 0.0605585 0.0632856
2 1 0.0660635 0.0641997 0.00304745
35 1 0.0610775 0.12563 0.0653505
39 1 0.189535 0.118768 0.0589739
43 1 0.310859 0.121996 0.0651265
20 1 0.495175 0.0564034 0.0579549
181 1 0.624126 0.121982 0.124281
55 1 0.680345 0.125597 0.0545034
40 1 0.122292 0.189247 0.0623308
170 1 0.315925 0.185094 0.125624
173 1 0.370408 0.122552 0.128669
51 1 0.559027 0.123653 0.0640397
56 1 0.617211 0.187406 0.0630097
189 1 0.866659 0.118524 0.124381
63 1 0.933825 0.120124 0.0602142
44 1 0.245941 0.185074 0.0613009
75 1 0.309699 0.250669 0.0629579
79 1 0.436296 0.243838 0.0614796
209 1 0.499462 0.249232 0.122023
182 1 0.692945 0.186884 0.124802
95 1 0.932162 0.252381 0.0605753
193 1 0.995234 0.246928 0.124082
197 1 0.124707 0.2513 0.122984
76 1 0.248778 0.312846 0.0592421
202 1 0.311395 0.311617 0.123081
213 1 0.622465 0.251822 0.128444
214 1 0.681951 0.313 0.122478
222 1 0.934486 0.310976 0.12608
198 1 0.186197 0.31539 0.120122
107 1 0.310377 0.37143 0.0668478
111 1 0.437814 0.373658 0.0640873
88 1 0.621664 0.309666 0.0652244
119 1 0.688398 0.370912 0.0630719
68 1 0.994009 0.309989 0.0670315
226 1 0.0603879 0.440669 0.125189
229 1 0.122371 0.37731 0.133674
249 1 0.750678 0.370647 0.122788
253 1 0.881065 0.376779 0.124
265 1 0.24711 0.00461192 0.246572
230 1 0.184699 0.438279 0.126999
108 1 0.250095 0.441615 0.0697369
546 1 0.0644971 0.187967 0.499023
112 1 0.375329 0.440347 0.0615778
74 1 0.313118 0.315456 -0.00101206
116 1 0.50094 0.434431 0.0676608
389 1 0.121557 0.00759974 0.373613
65 1 0.994469 0.25623 0.00371478
246 1 0.694102 0.436965 0.128485
124 1 0.747452 0.434825 0.0588997
254 1 0.940075 0.442031 0.123393
496 1 0.374824 0.443416 0.436849
134 1 0.186762 0.0592393 0.127739
140 1 0.251378 0.0664114 0.184907
144 1 0.374811 0.0580834 0.188391
387 1 0.0640419 0.0035945 0.441067
148 1 0.505093 0.0583884 0.186779
146 1 0.565699 0.0600271 0.122201
152 1 0.628816 0.0639414 0.193174
150 1 0.685541 0.0562377 0.123959
415 1 0.936052 0.00345141 0.434303
507 1 0.810421 0.37702 0.43789
130 1 0.0583741 0.0649748 0.126948
165 1 0.132135 0.127195 0.121448
138 1 0.312561 0.0597105 0.125698
142 1 0.438635 0.0626567 0.130042
177 1 0.499172 0.119195 0.128339
154 1 0.807591 0.0566618 0.12942
160 1 0.870846 0.0649321 0.191326
158 1 0.934086 0.0633546 0.124881
161 1 0.995084 0.131399 0.12324
166 1 0.188357 0.187141 0.126623
169 1 0.251359 0.130216 0.123113
176 1 0.374771 0.190957 0.187239
174 1 0.437301 0.177761 0.127904
179 1 0.567021 0.123034 0.187351
185 1 0.744915 0.120068 0.125813
186 1 0.813827 0.183644 0.123784
191 1 0.938492 0.127818 0.187022
162 1 0.0642906 0.186894 0.125516
201 1 0.246454 0.256515 0.124225
205 1 0.372015 0.250664 0.125756
178 1 0.563292 0.190047 0.125639
215 1 0.689155 0.252848 0.183961
221 1 0.872729 0.246101 0.125125
190 1 0.933049 0.184266 0.122568
195 1 0.0639132 0.252089 0.183206
199 1 0.183244 0.250601 0.185082
206 1 0.440343 0.310807 0.126602
212 1 0.500169 0.308801 0.187591
210 1 0.558945 0.311615 0.129592
217 1 0.749214 0.255521 0.127081
219 1 0.812227 0.249649 0.184002
194 1 0.0601658 0.312766 0.123939
200 1 0.127763 0.313308 0.187144
233 1 0.245796 0.376264 0.126733
204 1 0.249337 0.317911 0.187343
235 1 0.306974 0.384752 0.190456
237 1 0.371398 0.371192 0.124428
220 1 0.752399 0.316783 0.18387
218 1 0.810761 0.313608 0.123355
255 1 0.939933 0.370606 0.187292
225 1 0.99897 0.371885 0.129255
227 1 0.0578771 0.375896 0.189542
232 1 0.1223 0.438632 0.187901
231 1 0.190452 0.378954 0.189919
236 1 0.245957 0.442674 0.184144
234 1 0.318132 0.43686 0.123406
238 1 0.436779 0.432092 0.124787
241 1 0.501385 0.374791 0.131322
244 1 0.501502 0.437879 0.189164
242 1 0.563374 0.433019 0.126891
245 1 0.619626 0.372997 0.128155
247 1 0.682202 0.3688 0.186046
251 1 0.816081 0.37109 0.184339
256 1 0.873917 0.445738 0.190833
86 1 0.687327 0.311813 0.00134828
228 1 0.998166 0.436071 0.191061
508 1 0.746412 0.437167 0.440527
561 1 0.499004 0.12567 0.495983
101 1 0.1242 0.38003 0.00469386
542 1 0.935904 0.0586007 0.499226
248 1 0.628114 0.438792 0.189371
252 1 0.751282 0.430746 0.189358
250 1 0.821222 0.434066 0.122567
500 1 0.505318 0.438763 0.438148
266 1 0.310048 0.0594865 0.253225
282 1 0.804637 0.0574454 0.249189
11 1 0.312672 0.00174448 0.0640936
258 1 0.0629613 0.0600124 0.244519
136 1 0.122949 0.064465 0.184504
167 1 0.185242 0.130782 0.189947
171 1 0.310229 0.128788 0.192731
175 1 0.435723 0.123611 0.189236
270 1 0.438562 0.0632324 0.25193
156 1 0.743189 0.0612169 0.191039
313 1 0.751586 0.12849 0.249682
132 1 0.997598 0.0658813 0.192377
163 1 0.0570662 0.121746 0.183595
293 1 0.120957 0.129555 0.248284
294 1 0.183379 0.191012 0.25253
302 1 0.436632 0.190286 0.250287
180 1 0.507549 0.185858 0.19105
183 1 0.685183 0.127521 0.184915
187 1 0.803141 0.118207 0.185423
164 1 0.995795 0.189782 0.188647
168 1 0.124243 0.186505 0.184859
172 1 0.251822 0.189029 0.186134
207 1 0.442387 0.249265 0.187714
184 1 0.624999 0.191457 0.189156
188 1 0.750358 0.188978 0.188301
192 1 0.873291 0.184102 0.184389
325 1 0.120451 0.249391 0.25198
326 1 0.185565 0.31749 0.251398
203 1 0.308238 0.249472 0.185706
208 1 0.380053 0.311963 0.187241
334 1 0.434725 0.316019 0.25043
211 1 0.56331 0.248734 0.186647
223 1 0.933605 0.245298 0.18255
196 1 0.998545 0.305725 0.183934
322 1 0.0609757 0.317359 0.247251
361 1 0.249643 0.378626 0.258787
239 1 0.439255 0.37829 0.192197
216 1 0.620662 0.312993 0.190724
342 1 0.684256 0.311148 0.25236
346 1 0.817718 0.310871 0.244421
224 1 0.87254 0.312926 0.18185
353 1 0.997193 0.374552 0.251523
357 1 0.122143 0.375544 0.248753
358 1 0.18626 0.43942 0.252701
240 1 0.377968 0.437641 0.185822
366 1 0.441327 0.439565 0.253197
243 1 0.560025 0.373222 0.190052
377 1 0.74353 0.374758 0.252911
42 1 0.313708 0.187171 0.00519494
354 1 0.0618099 0.433259 0.252244
492 1 0.251709 0.43624 0.437431
19 1 0.555433 -0.000480672 0.0609172
378 1 0.806342 0.436988 0.248198
382 1 0.932784 0.439671 0.255223
1301 1 0.6259 0.498818 0.249639
1039 1 0.440555 0.49914 0.0613543
484 1 0.997903 0.434737 0.435529
27 1 0.810488 0.00138676 0.0662035
1167 1 0.437758 0.494687 0.184245
274 1 0.564322 0.0610341 0.254445
278 1 0.688039 0.0587979 0.259069
511 1 0.930671 0.375696 0.434827
610 1 0.0575008 0.434341 0.493213
262 1 0.181928 0.0682448 0.249113
301 1 0.37326 0.132039 0.250321
305 1 0.494461 0.125354 0.247354
309 1 0.626627 0.123041 0.251374
311 1 0.688561 0.125585 0.30773
284 1 0.750723 0.0687139 0.31713
288 1 0.86995 0.0662354 0.313212
286 1 0.931232 0.0666038 0.249581
289 1 -0.000242682 0.12635 0.248898
297 1 0.247347 0.124344 0.253541
298 1 0.3079 0.189999 0.251755
310 1 0.689999 0.189031 0.249898
315 1 0.810322 0.127232 0.311057
317 1 0.870414 0.124564 0.251885
290 1 0.0656507 0.187256 0.247168
296 1 0.122504 0.191499 0.308036
333 1 0.379043 0.251655 0.250193
337 1 0.49905 0.250127 0.249608
306 1 0.565466 0.181078 0.248929
314 1 0.809585 0.1914 0.24892
320 1 0.870149 0.187386 0.314999
318 1 0.932839 0.185642 0.2482
321 1 0.00507862 0.25065 0.253762
323 1 0.05967 0.251586 0.319789
329 1 0.250155 0.252171 0.250003
330 1 0.316078 0.310514 0.245832
336 1 0.375314 0.313439 0.320431
339 1 0.561748 0.248012 0.31492
341 1 0.616119 0.249808 0.250193
345 1 0.748187 0.256995 0.243868
348 1 0.754295 0.31531 0.310394
347 1 0.811632 0.252293 0.306896
349 1 0.874648 0.249706 0.2479
328 1 0.129374 0.317083 0.309876
359 1 0.184289 0.379097 0.312695
332 1 0.250969 0.309362 0.308108
363 1 0.311416 0.375236 0.318046
365 1 0.373993 0.375474 0.254009
340 1 0.506361 0.309013 0.316153
338 1 0.558173 0.307219 0.252362
344 1 0.620096 0.310443 0.309542
352 1 0.881618 0.311439 0.307393
350 1 0.938096 0.305694 0.240177
383 1 0.932346 0.379342 0.312363
364 1 0.246101 0.439151 0.317768
362 1 0.31169 0.438926 0.257824
369 1 0.502996 0.37421 0.25187
371 1 0.562557 0.373876 0.311872
373 1 0.624398 0.373233 0.252408
374 1 0.690088 0.436553 0.253092
381 1 0.881229 0.372872 0.244292
1433 1 0.746462 0.498131 0.373511
622 1 0.435412 0.44292 0.496717
81 1 0.499959 0.247858 0.00028783
370 1 0.565456 0.442186 0.247989
376 1 0.624589 0.443253 0.315828
480 1 0.875881 0.312692 0.437593
1289 1 0.254216 0.494681 0.255537
264 1 0.11645 0.0672006 0.311077
464 1 0.378526 0.316092 0.439362
268 1 0.248752 0.059156 0.318066
272 1 0.37641 0.0655557 0.312221
73 1 0.252977 0.252259 -0.000394246
276 1 0.502128 0.0695377 0.314353
402 1 0.562632 0.0686631 0.377557
406 1 0.689972 0.0614553 0.380443
33 1 0.999642 0.126222 0.00174136
260 1 1.00004 0.0670133 0.315802
390 1 0.187243 0.0605332 0.375164
425 1 0.247712 0.122384 0.371108
299 1 0.315089 0.12918 0.31187
429 1 0.379523 0.125412 0.374976
303 1 0.433277 0.130309 0.310154
433 1 0.492633 0.125806 0.377105
307 1 0.564028 0.129064 0.318182
280 1 0.629111 0.0611457 0.318306
291 1 0.0629208 0.132032 0.313781
421 1 0.118257 0.12713 0.373571
295 1 0.183961 0.128014 0.309066
300 1 0.249218 0.189966 0.312058
308 1 0.50013 0.188823 0.307959
319 1 0.930404 0.128087 0.313683
446 1 0.938247 0.19154 0.374532
292 1 0.99887 0.186219 0.311311
422 1 0.192183 0.187294 0.373775
426 1 0.310126 0.183002 0.378172
304 1 0.37679 0.190484 0.313473
335 1 0.436397 0.253234 0.311714
434 1 0.558562 0.184138 0.381579
312 1 0.623347 0.1851 0.311492
316 1 0.750767 0.191998 0.312516
442 1 0.811645 0.196358 0.374721
351 1 0.934484 0.247188 0.310985
327 1 0.183964 0.254303 0.310976
457 1 0.253936 0.252891 0.376606
331 1 0.315425 0.24981 0.316492
458 1 0.316975 0.312397 0.378324
461 1 0.374655 0.245332 0.378663
466 1 0.561562 0.315349 0.379931
343 1 0.683939 0.248857 0.311579
473 1 0.750737 0.255891 0.374362
477 1 0.87812 0.250787 0.375084
324 1 0.998519 0.307632 0.315934
450 1 0.0612852 0.305704 0.381494
485 1 0.121648 0.367182 0.379443
454 1 0.1863 0.311757 0.377578
367 1 0.440367 0.372955 0.312654
470 1 0.689319 0.314823 0.378161
379 1 0.815341 0.374486 0.301819
355 1 0.0606196 0.371847 0.317178
482 1 0.0638769 0.437818 0.376656
360 1 0.118293 0.434916 0.313942
368 1 0.380613 0.433492 0.31605
494 1 0.435578 0.44512 0.375749
372 1 0.506448 0.440127 0.312532
375 1 0.68349 0.37803 0.313674
505 1 0.749542 0.372837 0.372557
384 1 0.869017 0.436293 0.310906
356 1 0.00127444 0.436081 0.311973
491 1 0.312952 0.371239 0.442225
475 1 0.817418 0.253419 0.433708
486 1 0.183072 0.436148 0.376802
463 1 0.439823 0.247572 0.440917
490 1 0.311279 0.43579 0.376657
102 1 0.191935 0.439564 0.00249233
380 1 0.749312 0.434082 0.316771
1043 1 0.561822 0.49536 0.0647285
1041 1 0.503159 0.498405 0.000864158
396 1 0.249662 0.0621873 0.438013
394 1 0.308942 0.0603051 0.374094
400 1 0.376183 0.0603924 0.443787
404 1 0.498027 0.054485 0.439129
609 1 0.997137 0.374829 0.497737
417 1 0.99453 0.130862 0.374699
386 1 0.0603385 0.0640854 0.377421
398 1 0.431734 0.0616941 0.380376
431 1 0.436131 0.125098 0.438499
435 1 0.568839 0.124064 0.44398
439 1 0.684647 0.133668 0.443461
412 1 0.749779 0.064179 0.441193
410 1 0.809778 0.0660916 0.376305
414 1 0.938028 0.066834 0.371581
419 1 0.0560467 0.12609 0.439321
424 1 0.121325 0.191958 0.43678
423 1 0.185652 0.125113 0.440463
427 1 0.31261 0.116867 0.439871
432 1 0.370357 0.184598 0.442155
437 1 0.628291 0.125577 0.378416
438 1 0.690643 0.191017 0.375851
441 1 0.744225 0.123983 0.379122
445 1 0.877102 0.129788 0.375437
418 1 0.0555514 0.18932 0.38063
428 1 0.256713 0.186792 0.443416
430 1 0.437332 0.189169 0.373933
436 1 0.501162 0.187171 0.441768
469 1 0.627213 0.254501 0.379371
471 1 0.686551 0.253125 0.438718
448 1 0.874147 0.189923 0.440887
449 1 0.99422 0.248159 0.375021
452 1 0.993095 0.312681 0.438803
451 1 0.0573353 0.250395 0.442535
453 1 0.124325 0.249856 0.372169
455 1 0.188626 0.246926 0.435568
460 1 0.246553 0.310996 0.440397
459 1 0.31521 0.254054 0.438021
462 1 0.43737 0.304312 0.375873
465 1 0.501774 0.244196 0.377945
467 1 0.564644 0.248052 0.437025
472 1 0.624914 0.314499 0.440114
479 1 0.934986 0.251978 0.44027
489 1 0.250064 0.373235 0.379958
497 1 0.505188 0.379506 0.3726
468 1 0.495703 0.312222 0.437365
499 1 0.562407 0.377742 0.443185
501 1 0.622776 0.377821 0.372625
476 1 0.747423 0.317917 0.437655
474 1 0.813394 0.310229 0.374969
478 1 0.936907 0.310784 0.375921
483 1 0.061209 0.369352 0.442011
488 1 0.120969 0.430819 0.433719
487 1 0.183543 0.374366 0.439834
493 1 0.382624 0.373944 0.37319
495 1 0.437258 0.376298 0.441102
504 1 0.624954 0.440518 0.438209
503 1 0.686457 0.378455 0.434945
509 1 0.870781 0.375944 0.37757
481 1 -0.000300163 0.372518 0.374992
287 1 0.934774 0.0069526 0.312601
498 1 0.563109 0.44123 0.376387
502 1 0.685334 0.439856 0.374515
506 1 0.81254 0.437091 0.376481
510 1 0.93769 0.43633 0.375879
534 1 0.691534 0.0646403 0.499964
443 1 0.8137 0.12847 0.432757
85 1 0.627863 0.249198 0.00573262
1055 1 0.936055 0.496124 0.0571928
408 1 0.628172 0.06645 0.441643
118 1 0.681599 0.436637 0.0016435
388 1 0.00239897 0.0587537 0.438451
392 1 0.126728 0.0683995 0.436676
444 1 0.752956 0.198179 0.439466
145 1 0.498096 0.0022133 0.121842
1169 1 0.500268 0.493488 0.127892
456 1 0.131201 0.310667 0.442339
37 1 0.123664 0.123657 0.0032123
34 1 0.0637569 0.187771 9.45684e-05
1173 1 0.630981 0.496233 0.129707
416 1 0.867792 0.0630449 0.438509
447 1 0.932439 0.1204 0.438826
420 1 0.993254 0.18908 0.444345
62 1 0.933761 0.186245 0.00658938
1413 1 0.122282 0.497899 0.375178
440 1 0.624194 0.191718 0.440647
78 1 0.440767 0.312099 0.000360095
271 1 0.437285 0.00358227 0.31764
385 1 7.58176e-05 0.00494419 0.374834
1287 1 0.186393 0.493498 0.313797
1437 1 0.87928 0.494729 0.373025
405 1 0.622715 -0.000426774 0.374387
1309 1 0.866518 0.497444 0.252757
1419 1 0.31133 0.496578 0.438162
401 1 0.496683 0.000784914 0.375237
545 1 0.000965963 0.122784 0.499213
110 1 0.441265 0.433708 0.000338457
1177 1 0.753637 0.497292 0.125826
259 1 0.0592191 0.00232823 0.312585
69 1 0.122792 0.251725 0.000870776
1037 1 0.374795 0.499019 0.00507349
105 1 0.251389 0.375004 0.00245139
585 1 0.246307 0.24644 0.497928
549 1 0.122644 0.12649 0.497867
618 1 0.312772 0.436945 0.49881
1541 1 0.123522 0.49335 0.498754
46 1 0.433516 0.185194 0.000779558
522 1 0.314303 0.0592017 0.500177
114 1 0.559826 0.435805 0.00988912
538 1 0.810108 0.0632934 0.498675
41 1 0.252391 0.126786 0.000885036
589 1 0.383588 0.247887 0.498029
514 1 0.0636626 0.0595919 0.500448
629 1 0.626898 0.374931 0.49604
613 1 0.122133 0.373564 0.498021
1553 1 0.498326 0.49532 0.499476
5 1 0.124549 0.00204193 0.00202032
521 1 0.246354 0.0033667 0.496941
899 1 0.0606663 0.00177648 0.938204
1927 1 0.185655 0.498856 0.936235
641 1 0.000285294 0.0011534 0.625469
553 1 0.24766 0.119885 0.499643
536 1 0.628326 0.0599543 0.56275
126 1 0.938448 0.435882 0.995914
1681 1 0.501185 0.495362 0.625068
49 1 0.500117 0.119271 0.99538
520 1 0.119359 0.0612755 0.564908
524 1 0.248747 0.0602419 0.568591
532 1 0.501824 0.0649899 0.560235
563 1 0.565049 0.121002 0.56294
1821 1 0.873236 0.499378 0.750094
571 1 0.811955 0.12303 0.560898
771 1 0.0654251 0.00304974 0.806122
516 1 0.000442993 0.0591776 0.564942
1811 1 0.559501 0.497148 0.811214
551 1 0.18407 0.123433 0.561666
555 1 0.30566 0.121517 0.562779
559 1 0.429313 0.116008 0.56496
564 1 0.4976 0.180637 0.563919
671 1 0.939452 0.00167347 0.685161
568 1 0.625571 0.191696 0.564939
567 1 0.688347 0.123368 0.563299
575 1 0.943435 0.122252 0.559785
552 1 0.125577 0.189743 0.56107
556 1 0.249139 0.18307 0.561263
587 1 0.314975 0.245271 0.566585
591 1 0.441071 0.247096 0.560793
595 1 0.56592 0.258396 0.563752
599 1 0.684108 0.254828 0.56924
572 1 0.74913 0.186926 0.564738
586 1 0.314358 0.30647 0.508571
548 1 0.00173211 0.186626 0.560813
579 1 0.0595336 0.249252 0.559929
583 1 0.193885 0.250574 0.570495
588 1 0.251654 0.310042 0.567205
592 1 0.381274 0.30517 0.564482
600 1 0.628093 0.319019 0.563725
603 1 0.810577 0.251951 0.55818
607 1 0.935982 0.248645 0.563671
584 1 0.127028 0.311105 0.563849
619 1 0.31801 0.375568 0.561123
787 1 0.567704 0.00037779 0.812072
1665 1 0.00577042 0.500266 0.625794
631 1 0.685633 0.376001 0.566412
26 1 0.810202 0.0641473 0.994446
608 1 0.874741 0.31335 0.563094
921 1 0.750755 0.000571515 0.869741
611 1 0.0666543 0.376396 0.561799
616 1 0.130225 0.435072 0.568441
615 1 0.188574 0.370802 0.558708
620 1 0.251629 0.441217 0.56275
1941 1 0.627995 0.498082 0.87683
624 1 0.377918 0.434903 0.559585
623 1 0.441423 0.376968 0.562492
628 1 0.503457 0.43714 0.562469
566 1 0.690725 0.192089 0.504589
636 1 0.753326 0.437665 0.566223
22 1 0.691665 0.0606339 0.999298
612 1 -0.000805303 0.43245 0.566761
665 1 0.750345 -0.000150179 0.623155
1561 1 0.752929 0.498867 0.502386
915 1 0.565077 0.00231651 0.931884
1949 1 0.875407 0.493947 0.878403
783 1 0.444692 0.00231118 0.81535
919 1 0.684217 0.00227581 0.939709
528 1 0.367628 0.0585447 0.565044
14 1 0.43815 0.056753 0.994564
658 1 0.559195 0.0592287 0.623692
1823 1 0.934251 0.492775 0.814501
1551 1 0.43394 0.499784 0.55732
662 1 0.689624 0.0626128 0.623002
1012 1 0.500735 0.437404 0.940004
544 1 0.875619 0.0617848 0.55757
670 1 0.939992 0.0677269 0.623959
642 1 0.0650727 0.0616044 0.629623
654 1 0.437474 0.0510123 0.619445
693 1 0.619449 0.127552 0.623517
540 1 0.747684 0.0608913 0.560036
666 1 0.815276 0.0602691 0.623564
547 1 0.060176 0.119626 0.560883
677 1 0.122717 0.127511 0.622719
681 1 0.242102 0.129439 0.628551
682 1 0.311291 0.180439 0.622571
560 1 0.37615 0.187095 0.560065
685 1 0.372002 0.120656 0.624771
690 1 0.561056 0.184633 0.627874
694 1 0.687047 0.18974 0.623903
697 1 0.749078 0.118042 0.622597
673 1 0.000742694 0.128996 0.62314
705 1 0.0052992 0.255781 0.624345
678 1 0.184498 0.189001 0.628528
686 1 0.437189 0.187934 0.622696
725 1 0.621823 0.252211 0.626106
576 1 0.870557 0.183364 0.56388
709 1 0.122583 0.249741 0.626866
713 1 0.254609 0.243608 0.629342
714 1 0.30966 0.315236 0.624429
717 1 0.37074 0.249045 0.628012
596 1 0.503999 0.317095 0.564486
706 1 0.0641708 0.317692 0.624243
710 1 0.183269 0.316772 0.626729
753 1 0.504288 0.374608 0.627315
627 1 0.563937 0.377342 0.560091
757 1 0.630359 0.382081 0.62993
604 1 0.750346 0.315281 0.564208
580 1 0.000149981 0.317065 0.56522
737 1 0.999433 0.375389 0.632385
741 1 0.130455 0.375142 0.626333
745 1 0.246063 0.378254 0.622676
746 1 0.317074 0.43785 0.626337
749 1 0.378223 0.36716 0.622524
750 1 0.43478 0.437427 0.625349
754 1 0.564959 0.438624 0.627034
632 1 0.629943 0.43873 0.563467
758 1 0.695023 0.435618 0.626355
761 1 0.754571 0.374322 0.628737
635 1 0.813299 0.377819 0.56315
640 1 0.870426 0.437706 0.564541
639 1 0.936978 0.374355 0.567475
518 1 0.186175 0.0636677 0.500038
742 1 0.190087 0.440167 0.62353
543 1 0.937252 0.000174304 0.562054
1679 1 0.436489 0.499368 0.684967
766 1 0.939226 0.442388 0.622467
648 1 0.12883 0.0590303 0.691692
633 1 0.752765 0.377905 0.504745
660 1 0.500422 0.0665532 0.690875
664 1 0.614318 0.0649593 0.682693
668 1 0.746248 0.061811 0.686013
672 1 0.87706 0.0636936 0.685111
644 1 0.999265 0.061279 0.685932
675 1 0.0662206 0.127096 0.685229
646 1 0.183347 0.0590567 0.623883
650 1 0.311181 0.0599577 0.629929
691 1 0.560922 0.127203 0.690782
695 1 0.68677 0.126053 0.685905
674 1 0.0636048 0.190587 0.619532
680 1 0.126815 0.188496 0.687434
683 1 0.31112 0.122053 0.691669
688 1 0.373458 0.184086 0.682762
689 1 0.492357 0.120087 0.622911
692 1 0.488743 0.187324 0.68477
701 1 0.874791 0.123576 0.621582
719 1 0.42966 0.246275 0.684201
721 1 0.5025 0.24933 0.623263
729 1 0.75436 0.247364 0.623015
698 1 0.812444 0.185267 0.620276
702 1 0.933556 0.187427 0.617869
708 1 0.00494478 0.315009 0.687582
722 1 0.566942 0.318495 0.623501
732 1 0.750355 0.315623 0.691631
730 1 0.81412 0.31697 0.625676
733 1 0.867147 0.251196 0.621476
712 1 0.120708 0.313684 0.690272
720 1 0.373226 0.309819 0.687809
718 1 0.437639 0.30785 0.629669
724 1 0.502342 0.316332 0.691157
755 1 0.55837 0.38313 0.688724
726 1 0.695328 0.315567 0.625482
763 1 0.812225 0.373534 0.690084
765 1 0.87588 0.371714 0.626489
734 1 0.938964 0.313093 0.621998
739 1 0.0648179 0.376255 0.689636
744 1 0.127748 0.437962 0.693399
751 1 0.439855 0.375507 0.68647
760 1 0.628692 0.440066 0.690241
764 1 0.750182 0.443715 0.686719
767 1 0.938575 0.372002 0.690684
1695 1 0.936403 0.498719 0.689334
738 1 0.0655846 0.435849 0.621993
526 1 0.438744 0.0620435 0.50197
752 1 0.371128 0.437794 0.691488
1817 1 0.743533 0.499455 0.752705
617 1 0.251998 0.369925 0.500665
557 1 0.373719 0.120963 0.500521
762 1 0.813315 0.441762 0.629453
768 1 0.87726 0.433101 0.683496
18 1 0.561314 0.0559432 0.997472
1933 1 0.377621 0.498364 0.876414
554 1 0.310308 0.179681 0.503678
786 1 0.563442 0.0613505 0.751573
927 1 0.937376 0.0052541 0.935613
1565 1 0.875497 0.499422 0.505647
770 1 0.0606128 0.0650387 0.752636
774 1 0.188434 0.0602968 0.751559
652 1 0.24935 0.064685 0.689205
656 1 0.376272 0.0536059 0.690727
817 1 0.499825 0.127059 0.749104
821 1 0.625762 0.119992 0.745166
825 1 0.748237 0.127864 0.753713
699 1 0.808039 0.123425 0.676791
703 1 0.935323 0.130689 0.68151
801 1 0.995099 0.120179 0.745957
679 1 0.184637 0.123189 0.691869
809 1 0.251395 0.126932 0.747765
813 1 0.374596 0.118215 0.756472
687 1 0.436144 0.120253 0.687954
696 1 0.625598 0.185897 0.694024
700 1 0.749385 0.186708 0.685122
826 1 0.813594 0.189605 0.74646
830 1 0.934923 0.188871 0.745427
676 1 0.000659837 0.187297 0.68459
707 1 0.0620209 0.251692 0.693461
711 1 0.18256 0.256389 0.688004
684 1 0.245752 0.188573 0.69334
715 1 0.309788 0.250362 0.694313
845 1 0.373188 0.251042 0.746574
723 1 0.561499 0.252213 0.686725
704 1 0.870179 0.182382 0.684986
838 1 0.185131 0.310261 0.750067
716 1 0.246641 0.313377 0.686868
849 1 0.492516 0.249918 0.744652
850 1 0.559698 0.316828 0.749942
728 1 0.622599 0.314812 0.684901
727 1 0.687679 0.252658 0.68428
731 1 0.808708 0.250559 0.6843
736 1 0.874421 0.311518 0.690145
861 1 0.874529 0.251519 0.753168
862 1 0.941874 0.311206 0.750697
735 1 0.930014 0.247416 0.679125
834 1 0.0640029 0.312955 0.74681
743 1 0.188225 0.378802 0.691894
873 1 0.247628 0.375646 0.748067
842 1 0.313564 0.315822 0.747107
877 1 0.370143 0.378007 0.753882
881 1 0.496255 0.378617 0.749746
759 1 0.69003 0.374873 0.688421
865 1 0.00324103 0.375856 0.746137
866 1 0.0651114 0.439151 0.749714
869 1 0.125021 0.37346 0.753695
747 1 0.311411 0.374354 0.686699
874 1 0.311971 0.442198 0.751312
756 1 0.496469 0.440451 0.688093
885 1 0.62097 0.377529 0.747667
886 1 0.688723 0.435221 0.753952
889 1 0.750347 0.377687 0.747728
893 1 0.877285 0.370157 0.74803
917 1 0.625135 0.00819521 0.873843
740 1 0.0025894 0.442552 0.693241
581 1 0.125436 0.251763 0.500082
980 1 0.500234 0.307197 0.935827
870 1 0.183884 0.43094 0.755982
748 1 0.2588 0.442123 0.691726
878 1 0.4353 0.438862 0.746862
570 1 0.80957 0.192788 0.50226
890 1 0.812565 0.442278 0.754352
1923 1 0.0617253 0.499749 0.940302
894 1 0.93654 0.437596 0.750519
113 1 0.502339 0.369412 1.00021
1023 1 0.9388 0.371092 0.936327
601 1 0.747838 0.253571 0.50532
582 1 0.190745 0.309721 0.503036
782 1 0.442929 0.0629015 0.754848
923 1 0.810478 0.00622869 0.932144
790 1 0.688167 0.0656136 0.750806
794 1 0.806206 0.0640283 0.743887
798 1 0.934018 0.0638598 0.749025
772 1 0.998481 0.0672848 0.811569
805 1 0.125999 0.133854 0.750844
778 1 0.316538 0.0556736 0.751655
815 1 0.4332 0.125525 0.816472
819 1 0.564019 0.131691 0.815077
827 1 0.813932 0.124678 0.80837
829 1 0.870507 0.119559 0.747253
802 1 0.0638896 0.187782 0.750655
814 1 0.433891 0.181722 0.751055
820 1 0.495884 0.192179 0.8102
824 1 0.622771 0.191428 0.806708
822 1 0.686425 0.188209 0.753158
823 1 0.687355 0.13347 0.815316
828 1 0.748735 0.190466 0.811713
831 1 0.93651 0.123226 0.814897
837 1 0.12127 0.245336 0.754823
806 1 0.187642 0.190577 0.754364
810 1 0.315302 0.184891 0.749581
818 1 0.556214 0.189075 0.750553
851 1 0.556825 0.254748 0.805553
853 1 0.62488 0.251619 0.747232
833 1 0.000114642 0.24696 0.748646
840 1 0.125826 0.312895 0.814918
841 1 0.249736 0.250207 0.755626
846 1 0.435741 0.316886 0.750934
857 1 0.748046 0.249366 0.750172
863 1 0.943148 0.243476 0.813879
867 1 0.0650816 0.380228 0.815309
871 1 0.184856 0.372335 0.812007
879 1 0.434079 0.378823 0.810377
856 1 0.621922 0.317322 0.813336
854 1 0.6838 0.312504 0.750392
858 1 0.813206 0.310533 0.752347
876 1 0.249184 0.44357 0.808383
883 1 0.564787 0.382424 0.816227
888 1 0.631199 0.440134 0.810591
887 1 0.69109 0.374891 0.816782
891 1 0.81235 0.375419 0.81
896 1 0.879293 0.428907 0.813156
868 1 0.998899 0.436918 0.804723
1693 1 0.876691 0.494378 0.624099
550 1 0.187097 0.186897 0.499998
578 1 0.0587994 0.311121 0.502898
789 1 0.62924 0.00426633 0.749102
882 1 0.556989 0.438476 0.750861
972 1 0.249663 0.319573 0.93414
1007 1 0.440604 0.377808 0.9334
892 1 0.747176 0.440746 0.81077
1008 1 0.382114 0.438069 0.937897
776 1 0.12397 0.0695193 0.81172
597 1 0.633405 0.25909 0.502855
902 1 0.180755 0.0641162 0.87562
780 1 0.244608 0.0627718 0.81572
788 1 0.505781 0.0626698 0.817416
122 1 0.814282 0.434436 0.997573
792 1 0.624692 0.0653375 0.812797
800 1 0.876019 0.0639565 0.812253
968 1 0.125153 0.319034 0.938632
929 1 8.25234e-05 0.120298 0.873654
898 1 0.0651924 0.064175 0.873497
933 1 0.124138 0.130097 0.874775
784 1 0.378575 0.0592127 0.814557
910 1 0.440648 0.0587262 0.875052
949 1 0.628307 0.124499 0.872692
796 1 0.752683 0.0638063 0.810037
803 1 0.0646418 0.127707 0.8113
808 1 0.125874 0.189029 0.815661
807 1 0.187833 0.127067 0.815167
811 1 0.306303 0.121647 0.81042
816 1 0.373639 0.192689 0.814822
945 1 0.497449 0.126193 0.876024
946 1 0.562931 0.192495 0.872643
954 1 0.809884 0.188284 0.874552
832 1 0.880339 0.186972 0.80864
835 1 0.0687267 0.251084 0.819186
812 1 0.250284 0.190152 0.815014
843 1 0.317297 0.256448 0.810255
938 1 0.310166 0.189272 0.875786
847 1 0.435018 0.253357 0.811344
859 1 0.810973 0.247634 0.810794
804 1 0.996991 0.18022 0.810749
962 1 0.0649828 0.312974 0.875175
839 1 0.186408 0.250226 0.811876
970 1 0.315439 0.322056 0.874811
848 1 0.378093 0.316997 0.817317
974 1 0.434854 0.310776 0.877526
852 1 0.495122 0.318781 0.815383
855 1 0.685474 0.252308 0.814076
986 1 0.817297 0.311817 0.871058
989 1 0.87792 0.248124 0.872302
997 1 0.123753 0.379454 0.875556
966 1 0.18802 0.311016 0.876785
844 1 0.245708 0.3154 0.810968
1001 1 0.247555 0.381598 0.876445
1009 1 0.499858 0.373827 0.875794
982 1 0.687829 0.314668 0.873051
860 1 0.754809 0.310028 0.809954
864 1 0.876689 0.312878 0.809223
895 1 0.942027 0.370821 0.807857
836 1 0.00857686 0.310162 0.814589
994 1 0.0626604 0.442824 0.878919
998 1 0.186635 0.443483 0.873841
875 1 0.303043 0.380393 0.809417
880 1 0.372988 0.439465 0.816392
1013 1 0.623666 0.373235 0.879678
993 1 0.00209972 0.375096 0.87466
872 1 0.120573 0.439372 0.812951
1939 1 0.560642 0.500166 0.94271
795 1 0.81109 0.00089107 0.80984
884 1 0.496443 0.435129 0.811947
1010 1 0.558564 0.442118 0.876961
1683 1 0.559131 0.498631 0.687012
1014 1 0.685945 0.433074 0.875841
769 1 0.998116 0.00254732 0.750427
897 1 0.00211952 0.00242248 0.879055
906 1 0.313448 0.0628658 0.874331
634 1 0.811168 0.436903 0.500223
593 1 0.502623 0.2495 0.502942
992 1 0.871722 0.313029 0.938433
920 1 0.622595 0.0677097 0.939176
1019 1 0.814911 0.375506 0.935974
924 1 0.750026 0.0640807 0.933517
922 1 0.817617 0.0660032 0.870533
928 1 0.873681 0.0645035 0.938369
926 1 0.935614 0.0643593 0.876136
937 1 0.248655 0.125521 0.877131
914 1 0.565691 0.0706847 0.876805
918 1 0.691916 0.0621851 0.868723
953 1 0.743243 0.13099 0.872869
955 1 0.810317 0.127652 0.934071
957 1 0.875203 0.129336 0.873075
959 1 0.939189 0.121784 0.939187
932 1 0.0032136 0.190866 0.933352
930 1 0.06272 0.188431 0.877564
936 1 0.125948 0.189828 0.935901
934 1 0.188711 0.193418 0.881386
935 1 0.185475 0.125364 0.935976
941 1 0.369867 0.127802 0.871335
942 1 0.433533 0.186721 0.873854
950 1 0.68627 0.193991 0.873373