ITEM: TIMESTEP
100000
ITEM: NUMBER OF ATOMS
2048
ITEM: BOX BOUNDS pp pp pp
0.0000000000000000e+00 1.2699208415745595e+01
0.0000000000000000e+00 1.2699208415745595e+01
0.0000000000000000e+00 1.2699208415745595e+01
ITEM: ATOMS id type xs ys zs
604 1 0.249302 0.00447437 0.0155263
259 1 0.471145 0.0243606 0.0480536
249 1 0.545536 0.00766433 0.0434632
390 1 0.687554 0.0397266 0.0101697
27 1 0.889306 0.0226135 0.0223452
1719 1 0.983391 0.0377815 0.0221644
157 1 0.0234979 0.101413 0.0238332
1524 1 0.140123 0.0803232 0.00944792
1643 1 0.209972 0.0680247 0.0436278
1148 1 0.290345 0.0623132 0.0521262
486 1 0.404583 0.063364 0.0142656
1781 1 0.596171 0.0892156 0.030777
474 1 0.763362 0.0571247 0.0442569
1680 1 0.839618 0.0753639 0.0498659
1716 1 0.913473 0.0944185 0.0130549
825 1 0.0881332 0.151813 0.00555271
1882 1 0.175967 0.152452 0.0251749
447 1 0.251818 0.129018 0.0280813
389 1 0.341431 0.118808 0.0289877
1354 1 0.443577 0.126248 0.0531831
399 1 0.511616 0.140861 0.00419381
62 1 0.745708 0.138032 0.041727
2038 1 0.296775 0.204987 0.0217341
884 1 0.459745 0.199579 0.0065405
748 1 0.640637 0.187228 0.0553851
973 1 0.725247 0.212805 0.00657229
1236 1 0.787725 0.200243 0.0502711
1260 1 0.863224 0.211364 0.0173809
867 1 0.919419 0.178366 0.0547206
2025 1 0.0304121 0.25378 0.0436289
554 1 0.172241 0.230071 0.0099801
1054 1 0.349703 0.264549 0.0164335
1513 1 0.464292 0.267808 0.0463758
526 1 0.557691 0.235545 0.0248683
1240 1 0.678432 0.267202 0.0334457
1358 1 0.952154 0.242515 0.0193914
1130 1 0.0111252 0.319926 0.0177752
83 1 0.149309 0.303191 0.0210973
1355 1 0.405776 0.322746 0.0276464
865 1 0.487848 0.330111 0.012122
569 1 0.10414 0.3712 0.0178112
1340 1 0.228859 0.333665 0.0238585
1414 1 0.289578 0.372533 0.0491794
241 1 0.612457 0.338642 0.0484
2023 1 0.676102 0.367427 0.00551349
1715 1 0.80536 0.335615 0.0392032
243 1 0.886273 0.365008 0.0230566
2039 1 0.0314511 0.394556 0.0259079
788 1 0.214149 0.415734 0.0331986
1851 1 0.469536 0.398249 0.0495406
1162 1 0.578816 0.422358 0.0406704
1950 1 0.644231 0.438925 0.00200352
1833 1 0.797275 0.406315 0.00489604
329 1 0.968504 0.425017 0.00266954
780 1 0.0312375 0.470176 0.0472519
1488 1 0.227854 0.492178 0.0499115
251 1 0.300057 0.451034 0.0310004
313 1 0.446769 0.485479 0.0338903
1622 1 0.526178 0.477568 0.0488877
182 1 0.730885 0.485924 0.0510343
1165 1 0.00766874 0.0437608 0.0993115
833 1 0.156733 0.0484043 0.108407
1409 1 0.231443 0.0311228 0.105087
12 1 0.394612 0.00261929 0.0612334
1175 1 0.870983 0.0011122 0.105261
405 1 0.946965 0.00258347 0.0930324
1658 1 0.0886204 0.0590815 0.0747409
334 1 0.22562 0.107303 0.107356
834 1 0.352123 0.0831742 0.107931
593 1 0.431903 0.0667825 0.0993735
1421 1 0.516557 0.0951527 0.0599217
338 1 0.666862 0.0721606 0.0814207
1754 1 0.951431 0.110308 0.0844423
851 1 0.0500954 0.122573 0.10803
1091 1 0.129169 0.120497 0.0765464
151 1 0.367878 0.166133 0.0800334
1556 1 0.607616 0.119642 0.105123
374 1 0.830899 0.131666 0.105902
224 1 0.0234611 0.180453 0.0565472
1302 1 0.174228 0.194344 0.111041
637 1 0.243229 0.211595 0.0732527
731 1 0.531232 0.181263 0.0790705
1591 1 0.725527 0.199364 0.0891283
35 1 0.86688 0.199907 0.105111
318 1 0.092821 0.266319 0.0782778
1460 1 0.169 0.270994 0.0894475
674 1 0.307811 0.249306 0.105959
398 1 0.383801 0.248261 0.081503
1796 1 0.533528 0.26964 0.104887
171 1 0.612014 0.260498 0.0731838
754 1 0.752061 0.270329 0.0676172
30 1 0.851311 0.271411 0.0645919
150 1 0.24585 0.288512 0.0780959
1640 1 0.332001 0.317427 0.0760295
692 1 0.701518 0.320525 0.0963859
1180 1 0.774811 0.329865 0.106281
1304 1 0.926426 0.296338 0.0672635
1943 1 0.152601 0.364183 0.0728274
601 1 0.224644 0.354868 0.0958705
194 1 0.451312 0.336098 0.0860423
986 1 0.541081 0.346868 0.0914433
564 1 0.743966 0.382208 0.0580219
531 1 0.866027 0.338683 0.101198
84 1 0.960077 0.371326 0.0638094
751 1 0.100703 0.439908 0.0590536
76 1 0.181328 0.424149 0.108482
227 1 0.260486 0.423531 0.100699
1067 1 0.387866 0.419709 0.0585685
1756 1 0.618567 0.406175 0.105761
51 1 0.694973 0.429224 0.0915995
778 1 0.81749 0.410505 0.083762
1621 1 0.909983 0.432656 0.0602068
442 1 0.0646182 0.495322 0.105532
1603 1 0.148141 0.493527 0.0895175
1225 1 0.333147 0.444575 0.11067
1745 1 0.623689 0.480436 0.065248
467 1 0.840826 0.490014 0.0893431
44 1 0.973157 0.454881 0.0988284
1694 1 0.088415 0.0021801 0.128501
1164 1 0.309013 0.00538483 0.125527
1912 1 0.696246 0.017995 0.143322
1279 1 0.805616 0.0393831 0.126705
1364 1 0.287302 0.106113 0.16478
438 1 0.495255 0.0651696 0.137108
1085 1 0.575671 0.0598738 0.145436
587 1 0.688079 0.098822 0.158813
322 1 0.921347 0.0800501 0.148837
1595 1 0.144131 0.128513 0.164602
900 1 0.300478 0.164217 0.116214
344 1 0.399392 0.116967 0.158517
368 1 0.458628 0.151216 0.121863
2024 1 0.543545 0.128433 0.154292
180 1 0.747597 0.126954 0.119225
859 1 0.0212651 0.204307 0.13868
1100 1 0.10039 0.187897 0.115525
2005 1 0.240348 0.201067 0.151453
3 1 0.544233 0.205382 0.148546
331 1 0.652741 0.17053 0.130638
1385 1 0.812357 0.183768 0.164636
1442 1 0.090709 0.260324 0.159255
1027 1 0.36765 0.243753 0.156679
2000 1 0.442222 0.22332 0.123998
1787 1 0.662344 0.243514 0.133862
960 1 0.8076 0.259811 0.127381
113 1 0.958177 0.238935 0.114332
1879 1 0.00698772 0.312221 0.113391
21 1 0.249416 0.289789 0.153319
1078 1 0.331583 0.306212 0.152345
1323 1 0.421011 0.297384 0.155572
2021 1 0.624547 0.332278 0.131228
1045 1 0.935611 0.305191 0.141707
11 1 0.0182135 0.385657 0.118866
996 1 0.083807 0.344894 0.121654
1530 1 0.152583 0.36026 0.155599
1838 1 0.298577 0.379137 0.147294
1376 1 0.381457 0.37614 0.125113
966 1 0.453833 0.364461 0.157551
1159 1 0.52437 0.334651 0.165852
1670 1 0.680454 0.388175 0.152533
220 1 0.100993 0.416704 0.154994
1309 1 0.455603 0.430134 0.118409
1000 1 0.531628 0.41047 0.133314
1018 1 0.830158 0.430751 0.155343
1504 1 0.906327 0.414767 0.147525
203 1 0.205174 0.492197 0.14139
1461 1 0.391421 0.481162 0.14979
1379 1 0.566872 0.483121 0.119776
787 1 0.6481 0.457176 0.152046
2043 1 0.768011 0.493437 0.122173
829 1 0.926673 0.492459 0.161328
616 1 0.15167 0.0487733 0.188136
750 1 0.600939 0.0240888 0.209232
369 1 0.745174 0.0501077 0.192821
1487 1 0.837991 0.00460674 0.188667
196 1 0.914818 0.0106477 0.173067
494 1 0.987893 0.0494271 0.185826
562 1 0.0793908 0.0666818 0.166905
211 1 0.229327 0.0569747 0.177332
1519 1 0.344822 0.0598964 0.18374
505 1 0.441723 0.0679504 0.197751
1033 1 0.528137 0.0743679 0.211109
651 1 0.798173 0.098767 0.172919
970 1 0.856368 0.0741626 0.219557
623 1 0.216802 0.127391 0.20854
68 1 0.340898 0.158419 0.184119
2032 1 0.484263 0.149414 0.203896
1416 1 0.612929 0.112096 0.17983
1122 1 0.726282 0.148654 0.200024
716 1 0.87526 0.13615 0.171488
1764 1 0.985185 0.125045 0.16673
811 1 0.00752455 0.18032 0.214413
1868 1 0.0861487 0.176285 0.21456
1053 1 0.154928 0.20448 0.184763
1743 1 0.414951 0.193587 0.188996
1338 1 0.575066 0.204477 0.21719
393 1 0.651473 0.196098 0.21593
1017 1 0.869322 0.210398 0.213371
1126 1 0.933988 0.181541 0.181123
1185 1 0.311207 0.235247 0.201122
1256 1 0.48798 0.27107 0.180041
9 1 0.585304 0.2768 0.176557
974 1 0.75123 0.228916 0.175057
319 1 0.931213 0.25967 0.214284
1181 1 0.0610799 0.318054 0.203981
1697 1 0.177531 0.285505 0.173495
959 1 0.28523 0.323165 0.217889
910 1 0.724632 0.309308 0.168418
479 1 0.785913 0.314192 0.217958
1049 1 0.865713 0.27905 0.175631
831 1 0.994833 0.280424 0.180839
724 1 0.229683 0.36978 0.180902
1665 1 0.385123 0.370862 0.221374
801 1 0.643984 0.344407 0.205571
1769 1 0.767909 0.372903 0.172759
263 1 0.901533 0.348306 0.197545
1692 1 0.984095 0.357357 0.183538
1344 1 0.174042 0.424396 0.19114
381 1 0.343545 0.428832 0.184818
1522 1 0.425523 0.433296 0.19409
1477 1 0.510848 0.394607 0.211218
681 1 0.588088 0.396418 0.191825
504 1 0.734232 0.441162 0.17626
247 1 0.888101 0.439217 0.221076
1482 1 0.0138515 0.489022 0.167228
120 1 0.0530884 0.451334 0.222142
1907 1 0.131792 0.490891 0.167264
1780 1 0.207019 0.495413 0.219358
516 1 0.260373 0.447207 0.176194
448 1 0.513806 0.476763 0.177031
327 1 0.591292 0.475159 0.204394
819 1 0.828037 0.495127 0.199931
409 1 0.970443 0.447382 0.21236
1326 1 0.0946112 0.0439027 0.239349
1672 1 0.202582 0.0448391 0.246934
1933 1 0.398008 0.0132007 0.229851
992 1 0.681758 0.0300754 0.230664
60 1 0.75277 0.0151131 0.266742
1445 1 0.275615 0.0821513 0.236608
279 1 0.345591 0.107587 0.268661
897 1 0.643739 0.108901 0.256067
660 1 0.721368 0.105022 0.270057
848 1 0.94456 0.109445 0.235384
1187 1 0.0404421 0.112911 0.223425
920 1 0.139524 0.116572 0.266555
868 1 0.418918 0.128323 0.249564
749 1 0.574185 0.139202 0.261494
1906 1 0.804816 0.142406 0.246921
145 1 0.879578 0.148308 0.25489
1985 1 0.157865 0.19858 0.270431
1429 1 0.284162 0.17917 0.23369
202 1 0.367893 0.181704 0.248953
506 1 0.488177 0.202398 0.257865
16 1 0.734386 0.208811 0.248169
899 1 0.03883 0.246077 0.232942
1684 1 0.120658 0.273264 0.22905
1051 1 0.21431 0.237525 0.225398
1875 1 0.288825 0.251054 0.274545
1242 1 0.424795 0.256463 0.23751
552 1 0.534195 0.263112 0.240076
56 1 0.613628 0.269908 0.245073
31 1 0.696753 0.276212 0.248218
1583 1 0.798981 0.241064 0.228692
245 1 0.171569 0.330598 0.23923
297 1 0.358135 0.300585 0.23097
636 1 0.458958 0.332728 0.227268
303 1 0.974213 0.312355 0.251004
257 1 0.0149396 0.37966 0.248049
1457 1 0.320406 0.37159 0.263191
1012 1 0.571908 0.33849 0.244534
1772 1 0.720738 0.385081 0.2321
2011 1 0.839995 0.365651 0.240972
1141 1 0.110222 0.402827 0.238676
1112 1 0.226747 0.413597 0.271099
685 1 0.295221 0.441311 0.245515
934 1 0.458113 0.400019 0.269805
965 1 0.572092 0.431761 0.265024
589 1 0.653403 0.418613 0.23835
1057 1 0.792454 0.425608 0.22807
1035 1 0.9405 0.395715 0.258922
923 1 0.158063 0.455242 0.265448
156 1 0.390417 0.445009 0.260118
1801 1 0.6644 0.483116 0.274785
1615 1 0.911408 0.487083 0.271541
784 1 0.00560017 0.0411539 0.279777
285 1 0.0635306 0.00103239 0.307885
937 1 0.152442 0.0185089 0.322727
1058 1 0.279635 0.0169152 0.280212
1916 1 0.357189 0.0350599 0.296688
1663 1 0.470628 0.03982 0.279581
1398 1 0.62252 0.00695264 0.290255
631 1 0.693195 0.0315313 0.318714
72 1 0.844516 0.0305149 0.306739
1420 1 0.0630111 0.0784067 0.322498
1675 1 0.194451 0.088888 0.312364
375 1 0.272641 0.0920767 0.312867
514 1 0.567642 0.0581502 0.283802
1721 1 0.783038 0.0690338 0.325431
603 1 0.914643 0.0582803 0.285625
1994 1 0.0511207 0.156295 0.295412
1608 1 0.220536 0.154165 0.282612
643 1 0.483111 0.116205 0.292678
1246 1 0.781075 0.151965 0.319357
1190 1 0.319506 0.179987 0.311131
1891 1 0.417282 0.182448 0.32891
579 1 0.635334 0.168805 0.317713
873 1 0.832822 0.202993 0.291143
1395 1 0.976102 0.168267 0.280931
1266 1 0.0697111 0.228519 0.303306
1038 1 0.224019 0.224619 0.313487
1433 1 0.370461 0.242143 0.303425
1627 1 0.459388 0.24289 0.317037
658 1 0.567588 0.235222 0.314069
2017 1 0.675088 0.26803 0.319601
464 1 0.77469 0.254841 0.2985
1927 1 0.913124 0.231336 0.288488
843 1 0.0401863 0.30203 0.312919
1332 1 0.130063 0.299734 0.298238
1632 1 0.239221 0.319593 0.281745
610 1 0.333651 0.308511 0.30998
584 1 0.514608 0.320079 0.296319
256 1 0.832247 0.312229 0.312858
1082 1 0.899819 0.315904 0.284553
337 1 0.0883139 0.362324 0.311257
1742 1 0.180757 0.360424 0.310543
999 1 0.392593 0.352286 0.292425
48 1 0.66745 0.353207 0.281311
1410 1 0.751146 0.334259 0.285307
34 1 0.875017 0.375572 0.327473
1610 1 0.993956 0.372328 0.322505
1514 1 0.135629 0.428612 0.331851
926 1 0.281379 0.427062 0.323806
503 1 0.361608 0.415371 0.332619
735 1 0.51817 0.413392 0.323488
1831 1 0.625017 0.405141 0.319632
1588 1 0.735366 0.417 0.316913
1359 1 0.810301 0.402873 0.297525
1388 1 0.0703007 0.455335 0.296693
141 1 0.236462 0.491127 0.289375
827 1 0.328685 0.499294 0.281353
534 1 0.521176 0.497912 0.294228
1262 1 0.597567 0.48267 0.318639
1292 1 0.825962 0.484559 0.289083
252 1 0.977738 0.45985 0.289474
2012 1 0.0949181 0.0184343 0.371371
167 1 0.232803 0.0214325 0.342079
305 1 0.361755 0.0448081 0.373779
1779 1 0.488519 0.0318412 0.378981
1276 1 0.556238 0.00694557 0.35389
1821 1 0.794265 0.0266786 0.38493
1365 1 0.907589 0.0434602 0.368572
624 1 0.134361 0.0971107 0.372705
1952 1 0.422847 0.0904196 0.342748
1002 1 0.553854 0.0783864 0.379183
1947 1 0.623425 0.0944776 0.348547
119 1 0.724577 0.0728699 0.386098
1223 1 0.859323 0.107884 0.333811
1286 1 0.983678 0.0758281 0.349091
208 1 0.0343715 0.154591 0.370958
1869 1 0.255975 0.152797 0.357568
599 1 0.330487 0.116497 0.351381
1022 1 0.389167 0.145995 0.385386
1061 1 0.559294 0.152716 0.339796
223 1 0.703384 0.13339 0.338843
1228 1 0.795069 0.115082 0.383871
936 1 0.923551 0.165745 0.348612
529 1 0.00378783 0.216588 0.337671
364 1 0.180982 0.167775 0.354125
286 1 0.48883 0.197373 0.376095
411 1 0.721658 0.208778 0.336804
226 1 0.847366 0.170563 0.377943
977 1 0.145707 0.232881 0.345375
128 1 0.29095 0.240086 0.351599
1044 1 0.514057 0.274069 0.374964
1620 1 0.789204 0.238144 0.371468
260 1 0.887007 0.27146 0.35758
789 1 0.965776 0.277607 0.360187
458 1 0.0942441 0.304129 0.365416
1430 1 0.195736 0.289929 0.342291
1001 1 0.265441 0.313531 0.353573
1084 1 0.401821 0.296316 0.340774
1291 1 0.612789 0.288646 0.358631
1121 1 0.724382 0.305404 0.359897
537 1 0.0701736 0.387807 0.381468
210 1 0.147351 0.366599 0.385833
1704 1 0.331401 0.355115 0.377606
1859 1 0.423719 0.375282 0.368032
1495 1 0.504316 0.36025 0.381236
1348 1 0.568937 0.357373 0.342639
23 1 0.685377 0.372175 0.359801
1822 1 0.794009 0.355363 0.378464
264 1 0.939618 0.374792 0.380049
1221 1 0.21682 0.439636 0.362048
402 1 0.466499 0.438773 0.379213
814 1 0.80205 0.435279 0.365926
1673 1 0.913169 0.443616 0.346263
463 1 0.104654 0.487088 0.375989
1129 1 0.268232 0.497288 0.366153
366 1 0.662787 0.462149 0.354208
794 1 0.174068 0.0332132 0.403218
412 1 0.313707 0.0401072 0.439633
891 1 0.401739 0.0348932 0.438717
1009 1 0.669405 0.0306551 0.438882
527 1 0.982715 0.0253376 0.403768
828 1 0.0434387 0.0743446 0.39627
2014 1 0.258984 0.0804123 0.395109
1991 1 0.36532 0.103968 0.443878
889 1 0.449323 0.101959 0.428829
440 1 0.601954 0.0709961 0.435247
633 1 0.666073 0.110495 0.414172
1688 1 0.849547 0.0603168 0.440589
1102 1 0.973257 0.10102 0.426758
1538 1 0.0833661 0.127773 0.44006
1023 1 0.200667 0.128916 0.422393
1811 1 0.52145 0.139704 0.413655
1245 1 0.723691 0.164422 0.411372
66 1 0.892282 0.12414 0.421965
1494 1 0.105405 0.179628 0.389615
339 1 0.222451 0.219971 0.417943
626 1 0.331328 0.177818 0.429392
80 1 0.559947 0.215384 0.394994
102 1 0.619854 0.169458 0.394777
1575 1 0.969457 0.177584 0.407016
941 1 0.0275532 0.242653 0.413264
1307 1 0.102767 0.255518 0.429018
90 1 0.349577 0.264656 0.402264
980 1 0.422022 0.225783 0.398845
1505 1 0.672427 0.225147 0.39787
431 1 0.845753 0.266764 0.424188
1369 1 0.916852 0.227955 0.410181
333 1 0.21328 0.303403 0.412478
451 1 0.425031 0.315199 0.421494
1265 1 0.635163 0.292442 0.43309
805 1 0.748537 0.309809 0.432938
757 1 0.938904 0.296174 0.435378
1871 1 0.00948191 0.341691 0.396385
352 1 0.264514 0.388336 0.389616
1313 1 0.567446 0.355517 0.438973
1790 1 0.64522 0.363636 0.426719
413 1 0.869717 0.345548 0.404359
605 1 0.00672823 0.427279 0.394982
148 1 0.574595 0.419114 0.393041
183 1 0.734005 0.434446 0.411642
1576 1 0.884183 0.4399 0.414392
1734 1 0.0617602 0.465382 0.441206
1331 1 0.171307 0.458234 0.428696
298 1 0.247085 0.469829 0.434046
1674 1 0.31635 0.447155 0.396897
1744 1 0.398181 0.464897 0.40335
306 1 0.471929 0.484012 0.443189
296 1 0.642549 0.453274 0.430976
985 1 0.812979 0.489012 0.43372
1654 1 0.0579798 0.00953077 0.450085
1783 1 0.241163 0.00913699 0.455104
1108 1 0.471799 0.0284613 0.478547
29 1 0.71659 0.00467982 0.492408
611 1 0.789784 0.00377954 0.460812
1605 1 0.924422 0.0434684 0.44953
392 1 0.0324487 0.0848237 0.473622
274 1 0.113606 0.0718218 0.479813
1557 1 0.192804 0.068831 0.473863
1503 1 0.414027 0.0839471 0.498316
116 1 0.52714 0.0723466 0.451937
2002 1 0.71847 0.109894 0.467169
987 1 0.787295 0.0875115 0.494191
1539 1 0.916242 0.108865 0.49201
209 1 0.289655 0.116349 0.458925
1788 1 0.484732 0.11482 0.493862
1762 1 0.574123 0.165001 0.468156
1922 1 0.648989 0.166011 0.465043
1750 1 0.790085 0.161866 0.447927
250 1 0.030463 0.180507 0.463764
836 1 0.129488 0.183251 0.462597
1512 1 0.283137 0.209339 0.477154
1382 1 0.435147 0.167331 0.467541
1738 1 0.723781 0.221056 0.483096
758 1 0.861059 0.170488 0.479573
2 1 0.954333 0.181301 0.482611
525 1 0.201715 0.266696 0.476904
713 1 0.401796 0.261338 0.468589
1793 1 0.490167 0.228883 0.456691
839 1 0.558953 0.269954 0.460451
1786 1 0.614326 0.231105 0.498484
913 1 0.815191 0.256872 0.492941
89 1 0.905208 0.237681 0.481709
914 1 0.00666008 0.30849 0.46797
1474 1 0.148662 0.324011 0.455092
1917 1 0.275743 0.290667 0.457556
1456 1 0.689127 0.289675 0.490221
904 1 0.879498 0.310498 0.482799
1386 1 0.276977 0.388455 0.463281
1937 1 0.34283 0.333677 0.456356
518 1 0.409719 0.349558 0.494388
1327 1 0.490325 0.346679 0.471262
1717 1 0.722826 0.37571 0.477704
1046 1 0.810886 0.341715 0.451441
1402 1 0.0433159 0.394753 0.473793
1094 1 0.118613 0.406918 0.448802
1391 1 0.19286 0.389336 0.454397
49 1 0.349002 0.409675 0.463805
1072 1 0.44251 0.406567 0.449297
1360 1 0.52259 0.417 0.454919
1422 1 0.609617 0.407865 0.497918
875 1 0.803378 0.413181 0.445001
57 1 0.885218 0.398632 0.480666
323 1 0.95954 0.39165 0.45615
1293 1 0.389154 0.478862 0.484845
1898 1 0.573655 0.484032 0.452612
292 1 0.764044 0.461575 0.496249
1202 1 0.905198 0.475441 0.491559
1596 1 0.990395 0.459661 0.483562
1350 1 0.0741487 0.0142015 0.539763
1479 1 0.157361 0.0323187 0.5426
1447 1 0.34337 0.0439695 0.51633
659 1 0.410691 0.00722456 0.520476
929 1 0.492812 0.0121167 0.552275
484 1 0.551927 0.00512266 0.505204
1119 1 0.625109 0.0186645 0.500465
1645 1 0.675941 0.0441601 0.551195
1857 1 0.858477 0.0208964 0.509687
1025 1 0.934242 0.0438265 0.540488
1827 1 0.271337 0.0704596 0.520352
1962 1 0.559249 0.0764484 0.521139
343 1 0.643785 0.0904 0.501984
1558 1 0.700483 0.110532 0.5503
1083 1 0.854114 0.103286 0.534861
1173 1 0.985928 0.099392 0.528806
824 1 0.0842764 0.154166 0.515223
967 1 0.154465 0.126126 0.52346
721 1 0.262251 0.146888 0.522391
810 1 0.342483 0.122349 0.533219
1562 1 0.444921 0.161261 0.54374
1974 1 0.580623 0.149872 0.543977
1096 1 0.785059 0.160543 0.524956
7 1 0.144426 0.196297 0.544646
397 1 0.207321 0.196757 0.500181
278 1 0.372066 0.192032 0.518468
657 1 0.517942 0.195545 0.5206
1206 1 0.671643 0.182876 0.537659
740 1 0.851744 0.201359 0.54681
1227 1 0.00281593 0.24451 0.523905
1835 1 0.0653044 0.273366 0.501104
823 1 0.140204 0.270174 0.523975
280 1 0.336711 0.272841 0.507114
1280 1 0.456154 0.251014 0.525236
866 1 0.0162408 0.331024 0.554734
857 1 0.205339 0.332059 0.518644
558 1 0.267032 0.282505 0.531064
1746 1 0.392956 0.28829 0.549926
55 1 0.521784 0.297085 0.521503
1777 1 0.587266 0.331732 0.527624
1628 1 0.770587 0.317572 0.5301
1356 1 0.942733 0.307768 0.53162
1565 1 0.0986894 0.34032 0.515506
1288 1 0.285087 0.36065 0.532337
460 1 0.516802 0.375708 0.536919
613 1 0.659702 0.362364 0.527238
188 1 0.87902 0.357503 0.543956
98 1 0.955161 0.380287 0.530634
1965 1 0.0532984 0.400916 0.551068
1590 1 0.155819 0.402134 0.516195
420 1 0.226376 0.421702 0.53293
649 1 0.371444 0.415921 0.53789
1147 1 0.456003 0.424323 0.52526
697 1 0.680963 0.435875 0.504569
556 1 0.742573 0.395091 0.547202
983 1 0.811978 0.398306 0.521684
1529 1 0.0987971 0.452573 0.521451
1252 1 0.169686 0.483589 0.551156
1730 1 0.307337 0.465205 0.502533
574 1 0.418246 0.48581 0.550617
1683 1 0.546363 0.455939 0.528894
218 1 0.0117806 0.0383884 0.579947
1553 1 0.294772 0.023472 0.583579
1949 1 0.431146 0.0176522 0.594357
75 1 0.528248 0.0492543 0.604839
803 1 0.593066 0.00870001 0.592009
691 1 0.785642 0.0368799 0.557061
221 1 0.867544 0.0177785 0.58831
1720 1 0.0650785 0.0913292 0.557011
1004 1 0.12532 0.0781046 0.599312
540 1 0.210728 0.0857986 0.55972
2003 1 0.292113 0.100455 0.587394
1106 1 0.446287 0.0939239 0.574989
1440 1 0.630619 0.100579 0.58152
348 1 0.73364 0.0571444 0.610137
232 1 0.00313424 0.113999 0.604905
1585 1 0.101346 0.149428 0.598854
655 1 0.193011 0.155871 0.602837
137 1 0.513353 0.154797 0.583465
513 1 0.783484 0.115227 0.591663
656 1 0.892047 0.145667 0.599018
272 1 0.956119 0.164055 0.555881
1874 1 0.0184255 0.19076 0.608495
615 1 0.0731537 0.212317 0.559601
673 1 0.263403 0.206123 0.58795
443 1 0.351027 0.172981 0.598189
1597 1 0.414132 0.216585 0.577874
1925 1 0.735901 0.220086 0.559785
85 1 0.801046 0.18988 0.608068
509 1 0.00123143 0.265696 0.602397
1209 1 0.140618 0.27713 0.610448
81 1 0.201755 0.249064 0.568735
355 1 0.326704 0.24975 0.589557
59 1 0.50379 0.229443 0.607778
1383 1 0.574879 0.253898 0.55911
282 1 0.651678 0.267224 0.559958
1401 1 0.780057 0.275586 0.606481
370 1 0.932689 0.240598 0.573744
665 1 0.0686962 0.288226 0.582382
606 1 0.274821 0.310704 0.606114
1150 1 0.464277 0.297231 0.584917
641 1 0.545662 0.324887 0.599372
1521 1 0.622737 0.330993 0.597009
110 1 0.838785 0.286653 0.56015
1166 1 0.900935 0.310727 0.60472
1283 1 0.111879 0.347671 0.593022
1805 1 0.197705 0.338425 0.605737
1537 1 0.361907 0.351518 0.577444
1368 1 0.430254 0.38495 0.585298
978 1 0.734615 0.33666 0.597838
1998 1 0.815539 0.355425 0.585537
2042 1 0.152518 0.414565 0.592204
797 1 0.252181 0.391584 0.605609
133 1 0.307934 0.44178 0.5739
993 1 0.493816 0.427899 0.601024
1784 1 0.584858 0.398614 0.566477
384 1 0.662835 0.414724 0.592396
1923 1 0.859404 0.425283 0.580233
1626 1 0.996802 0.403358 0.60164
205 1 0.0153827 0.498592 0.574041
1211 1 0.0977663 0.472217 0.603508
1136 1 0.240848 0.481536 0.582899
269 1 0.551121 0.475545 0.605767
994 1 0.619549 0.463907 0.556806
669 1 0.783822 0.458985 0.572348
948 1 0.944096 0.450858 0.556474
1196 1 0.0869737 0.00913063 0.627986
483 1 0.162159 0.029646 0.642218
1896 1 0.235963 0.00932659 0.63956
963 1 0.312008 0.0325452 0.666573
1932 1 0.666675 0.0514692 0.653822
96 1 0.0256994 0.0627777 0.666448
676 1 0.220094 0.0850944 0.634757
177 1 0.364435 0.0582599 0.612426
1961 1 0.322907 0.1073 0.655681
1333 1 0.440198 0.0572148 0.661845
1890 1 0.489023 0.109926 0.643464
1 1 0.593997 0.0754471 0.649493
652 1 0.834746 0.0836223 0.644417
1138 1 0.941961 0.0688657 0.620108
1168 1 0.268922 0.163612 0.650802
1198 1 0.571802 0.152803 0.633363
43 1 0.696812 0.131957 0.631334
1766 1 0.844509 0.157313 0.656155
1378 1 0.20732 0.220117 0.658439
403 1 0.442962 0.168406 0.626847
1199 1 0.642936 0.204398 0.620309
1611 1 0.723634 0.201448 0.629825
821 1 0.9377 0.19553 0.636616
1257 1 0.118408 0.230438 0.664555
1462 1 0.366568 0.247733 0.653443
927 1 0.445924 0.233664 0.665602
415 1 0.567764 0.263058 0.641237
1161 1 0.85753 0.233586 0.633575
45 1 0.415435 0.31083 0.645948
386 1 0.687908 0.285507 0.646098
1139 1 0.838819 0.307617 0.649825
1019 1 0.103184 0.357899 0.663466
427 1 0.483404 0.357155 0.629659
1872 1 0.700098 0.371533 0.6539
365 1 0.963692 0.339712 0.638012
1458 1 0.063611 0.418485 0.64195
1315 1 0.211676 0.441641 0.649402
1099 1 0.320932 0.404688 0.635947
1735 1 0.604053 0.398433 0.642182
1394 1 0.76096 0.409725 0.623489
852 1 0.915797 0.40102 0.630793
976 1 0.422264 0.459173 0.618032
1114 1 0.49047 0.485398 0.655195
1671 1 0.615881 0.491016 0.640745
330 1 0.702383 0.475783 0.631124
638 1 0.777207 0.493763 0.647704
1425 1 0.86655 0.452791 0.660321
1088 1 0.118994 0.00253389 0.702024
1657 1 0.200389 0.0293625 0.716583
786 1 0.534753 0.0421838 0.692303
1703 1 0.609202 0.0244272 0.700674
65 1 0.774313 0.0462921 0.678769
206 1 0.146818 0.086478 0.688106
521 1 0.254062 0.103921 0.703471
773 1 0.480004 0.0915392 0.717303
969 1 0.910396 0.0933316 0.687217
1224 1 0.0696558 0.12113 0.687158
376 1 0.155744 0.161502 0.670491
595 1 0.399041 0.120631 0.667534
1511 1 0.547851 0.119318 0.700535
373 1 0.686815 0.12571 0.715313
693 1 0.764482 0.126675 0.670424
1794 1 0.991829 0.152701 0.694934
1412 1 0.0609022 0.198068 0.710975
1803 1 0.351401 0.183882 0.69172
478 1 0.468654 0.170908 0.703171
349 1 0.540073 0.200648 0.687664
125 1 0.623572 0.171516 0.693268
2010 1 0.7207 0.211919 0.710281
813 1 0.798741 0.206228 0.682314
1637 1 0.91406 0.176678 0.705017
879 1 0.287402 0.269329 0.684054
766 1 0.63884 0.249336 0.700637
1954 1 0.757268 0.27616 0.693812
704 1 0.90747 0.276999 0.673004
1727 1 0.994917 0.227268 0.676356
1582 1 0.0541395 0.289824 0.669217
940 1 0.143948 0.328551 0.720869
1944 1 0.207478 0.295915 0.676029
542 1 0.353093 0.315108 0.689601
1261 1 0.433211 0.292342 0.717862
1544 1 0.524173 0.306053 0.685045
577 1 0.604695 0.316666 0.679771
2019 1 0.694362 0.323575 0.713924
1863 1 0.0400304 0.347908 0.718652
242 1 0.188176 0.37984 0.688012
1931 1 0.281611 0.346963 0.675339
719 1 0.38644 0.386841 0.684795
1815 1 0.542064 0.387084 0.696236
1105 1 0.777122 0.348569 0.677603
1055 1 0.838651 0.385305 0.699697
2004 1 0.916161 0.352758 0.70617
1427 1 0.00665243 0.412174 0.685244
732 1 0.118361 0.434066 0.705929
1807 1 0.274468 0.424489 0.708244
760 1 0.462155 0.404679 0.69835
1800 1 0.664936 0.437938 0.690894
1289 1 0.771036 0.436838 0.69438
769 1 0.920171 0.426835 0.71305
2047 1 0.0562461 0.47477 0.688915
743 1 0.350676 0.467931 0.678227
152 1 0.429766 0.467577 0.717677
308 1 0.565197 0.470998 0.697937
677 1 0.942725 0.496347 0.682282
800 1 0.249897 0.0507395 0.774183
1295 1 0.345009 0.0508902 0.731423
1080 1 0.418416 0.00886374 0.722999
71 1 0.50672 0.00147601 0.748057
1877 1 0.684521 0.0471523 0.749639
24 1 0.769825 0.0450055 0.765554
1250 1 0.898589 0.0550097 0.770928
454 1 0.980191 0.00272761 0.731018
755 1 0.0589305 0.0593468 0.735712
111 1 0.128087 0.0673072 0.766271
234 1 0.538088 0.0818471 0.767789
1546 1 0.615731 0.0986808 0.728633
283 1 0.830677 0.0724557 0.728217
2018 1 0.97474 0.0867884 0.724264
1957 1 0.0370511 0.138377 0.765818
1905 1 0.112572 0.14957 0.741626
1192 1 0.195425 0.112171 0.760098
962 1 0.331987 0.131152 0.766906
2034 1 0.412426 0.12984 0.763755
135 1 0.516267 0.15539 0.761327
1989 1 0.73781 0.153256 0.767455
1963 1 0.963249 0.160998 0.763274
363 1 0.150759 0.218585 0.7364
92 1 0.231013 0.179559 0.722828
1573 1 0.300605 0.200175 0.744035
512 1 0.41085 0.215087 0.74065
1655 1 0.593351 0.216002 0.751159
895 1 0.667118 0.195712 0.761572
1160 1 0.849433 0.184448 0.739997
918 1 0.0870355 0.265698 0.74638
1854 1 0.21722 0.251105 0.750303
817 1 0.350572 0.2599 0.749812
1542 1 0.491897 0.245452 0.733195
916 1 0.773606 0.239508 0.755749
984 1 0.909862 0.224506 0.767586
938 1 0.25007 0.318834 0.73574
1050 1 0.597298 0.29395 0.752816
1554 1 0.672716 0.278543 0.76943
470 1 0.844652 0.324938 0.74208
86 1 0.991635 0.285914 0.736421
2008 1 0.333971 0.367761 0.741948
1241 1 0.417488 0.382861 0.760614
729 1 0.480077 0.339043 0.757245
261 1 0.615018 0.371795 0.751569
888 1 0.77375 0.384856 0.750115
416 1 0.976706 0.379679 0.744254
981 1 0.0543015 0.431858 0.755791
1506 1 0.160107 0.394469 0.75944
1639 1 0.506706 0.432101 0.753395
493 1 0.710572 0.431338 0.765898
244 1 0.894643 0.389254 0.769632
321 1 0.201321 0.444958 0.724457
1563 1 0.285711 0.482937 0.763884
761 1 0.350762 0.445661 0.765842
378 1 0.581737 0.460604 0.774547
718 1 0.636128 0.498774 0.724459
650 1 0.79717 0.459457 0.774134
952 1 0.877498 0.485116 0.73492
890 1 0.0138485 0.00843863 0.801358
930 1 0.0982941 0.00232009 0.789805
931 1 0.176237 0.0177663 0.789011
1308 1 0.260732 0.0105887 0.832134
972 1 0.401449 0.0493595 0.786836
1616 1 0.56908 0.00133112 0.83132
585 1 0.719187 0.00519909 0.81283
1714 1 0.0532889 0.0731775 0.823265
956 1 0.318403 0.0558766 0.805804
588 1 0.476638 0.0861139 0.815157
1357 1 0.615482 0.0570164 0.788902
1559 1 0.670627 0.109424 0.790688
907 1 0.746532 0.0927186 0.832957
265 1 0.818295 0.0639026 0.831185
1881 1 0.980856 0.08646 0.802114
1065 1 0.11563 0.136348 0.817121
1929 1 0.598423 0.144979 0.786533
1284 1 0.810472 0.127077 0.782744
1507 1 0.914785 0.15859 0.819924
756 1 0.0511311 0.208727 0.793433
663 1 0.167534 0.20749 0.814889
1086 1 0.25738 0.189291 0.807295
1215 1 0.385124 0.190364 0.806214
1021 1 0.466079 0.176209 0.833168
1273 1 0.740092 0.215176 0.820831
1517 1 0.836523 0.202271 0.826525
1372 1 0.462812 0.248025 0.803325
1459 1 0.843374 0.272935 0.797047
1740 1 0.960267 0.222717 0.821457
1339 1 0.0262519 0.325114 0.800241
511 1 0.152803 0.292909 0.796241
795 1 0.286784 0.282788 0.793095
707 1 0.358345 0.296966 0.818076
1700 1 0.530854 0.29756 0.792643
706 1 0.604902 0.32351 0.827152
1667 1 0.765457 0.30327 0.798023
1696 1 0.933507 0.294713 0.793461
1451 1 0.0942799 0.364308 0.782095
58 1 0.227202 0.361351 0.791488
945 1 0.294769 0.379178 0.822892
25 1 0.425798 0.333444 0.826043
1995 1 0.549607 0.374569 0.793364
1910 1 0.684696 0.35836 0.778881
746 1 0.827531 0.38501 0.812827
452 1 0.240677 0.439713 0.81256
1016 1 0.418624 0.416563 0.825762
733 1 0.493401 0.407534 0.82567
1134 1 0.629551 0.406503 0.823864
6 1 0.998113 0.398975 0.815837
1934 1 0.130395 0.470485 0.782758
1753 1 0.661415 0.485418 0.796333
1186 1 0.952168 0.467446 0.782387
1971 1 0.128047 0.0542006 0.847693
1666 1 0.330878 0.0528142 0.883994
1901 1 0.431863 0.0536764 0.862887
129 1 0.514972 0.0414323 0.884458
570 1 0.656349 0.0501258 0.857701
928 1 0.773389 0.0213984 0.881229
951 1 0.888615 0.0487732 0.851788
1234 1 0.994457 0.0346694 0.870545
1888 1 0.203098 0.075931 0.846233
1732 1 0.38115 0.108962 0.838993
1453 1 0.564246 0.0864399 0.843486
1149 1 0.0241845 0.150572 0.838609
1527 1 0.144708 0.133209 0.887869
646 1 0.277549 0.113775 0.83535
155 1 0.546692 0.159519 0.856583
1832 1 0.624991 0.130713 0.858846
1817 1 0.694911 0.164736 0.858042
1609 1 0.780467 0.160255 0.859808
1856 1 0.852842 0.133869 0.877973
1059 1 0.081224 0.185443 0.865844
1555 1 0.201782 0.173634 0.879384
1214 1 0.31216 0.217246 0.859631
1938 1 0.402568 0.171861 0.888091
1959 1 0.618537 0.209936 0.842156
293 1 0.061846 0.264805 0.846795
775 1 0.135988 0.253513 0.86803
642 1 0.222655 0.269793 0.837385
935 1 0.411557 0.265259 0.857993
1473 1 0.47818 0.235184 0.878371
905 1 0.552379 0.244599 0.858996
1041 1 0.797246 0.248451 0.872393
1142 1 0.8898 0.272529 0.857545
1172 1 0.0120626 0.313246 0.872392
164 1 0.171897 0.319153 0.879015
178 1 0.287511 0.302434 0.868032
1778 1 0.524297 0.318732 0.864552