ITEM: TIMESTEP
100000
ITEM: NUMBER OF ATOMS
2048
ITEM: BOX BOUNDS pp pp pp
0.0000000000000000e+00 1.1635780856594225e+01
0.0000000000000000e+00 1.1635780856594225e+01
0.0000000000000000e+00 1.1635780856594225e+01
ITEM: ATOMS id type xs ys zs
147 1 0.559361 0.00386849 0.192075
610 1 0.0722708 0.436465 0.495505
1427 1 0.565028 0.493812 0.432237
20 1 0.489155 0.0692076 0.0644993
1311 1 0.942442 0.496184 0.311754
622 1 0.442358 0.440214 0.496602
62 1 0.9474 0.185588 0.00590693
126 1 0.937764 0.438001 0.00409715
8 1 0.122433 0.0611886 0.0619496
69 1 0.115619 0.256275 0.00410884
121 1 0.748312 0.369223 0.00154741
24 1 0.621583 0.063634 0.0621065
1037 1 0.377759 0.491012 0.00311543
606 1 0.933262 0.311844 0.497655
32 1 0.877272 0.0583495 0.0600934
63 1 0.93762 0.12421 0.059355
35 1 0.0664939 0.122101 0.0581208
263 1 0.191934 0.000500462 0.309722
259 1 0.0597787 0.000752902 0.314866
56 1 0.625704 0.186078 0.0564678
60 1 0.745811 0.190652 0.0540253
64 1 0.887911 0.193806 0.0719754
545 1 1.00186 0.124202 0.500736
562 1 0.564704 0.185615 0.488443
1291 1 0.311245 0.493694 0.312973
1051 1 0.81915 0.498159 0.0573539
159 1 0.939678 0.00692339 0.196223
87 1 0.686201 0.251237 0.060079
91 1 0.816393 0.238725 0.0630327
395 1 0.318969 0.000408323 0.431718
574 1 0.937071 0.198758 0.499224
387 1 0.0605929 0.00428768 0.434258
1167 1 0.435082 0.500373 0.189306
75 1 0.304166 0.249452 0.0588354
80 1 0.376104 0.313796 0.0499007
1157 1 0.121389 0.496039 0.124409
79 1 0.43982 0.251192 0.0575391
83 1 0.562187 0.243444 0.0650118
88 1 0.622123 0.310667 0.066037
92 1 0.747223 0.305307 0.0598862
1545 1 0.256918 0.49515 0.493125
1423 1 0.440365 0.496755 0.435768
117 1 0.618259 0.375047 0.00757387
107 1 0.310593 0.372288 0.0601674
1413 1 0.131511 0.498533 0.36846
84 1 0.498254 0.307292 0.0514556
123 1 0.816037 0.370535 0.0606749
391 1 0.182959 0.0087774 0.434075
135 1 0.189427 0.00893406 0.183097
118 1 0.678742 0.441833 0.00446274
111 1 0.438936 0.371533 0.0511174
115 1 0.564273 0.376168 0.0659439
97 1 0.00211132 0.38154 0.00680289
269 1 0.377518 -0.000149281 0.250646
108 1 0.253878 0.44129 0.0548865
1415 1 0.189415 0.498433 0.436308
112 1 0.375649 0.426448 0.0609619
577 1 0.996724 0.257594 0.498167
116 1 0.501043 0.42875 0.0593705
1183 1 0.943882 0.494123 0.183649
389 1 0.122453 3.88234e-05 0.37507
7 1 0.188997 0.000129004 0.0580582
34 1 0.0634711 0.187671 0.00459033
65 1 0.00745856 0.251029 -0.000213756
561 1 0.506385 0.125849 0.497025
257 1 0.00382661 0.00255196 0.250219
21 1 0.617533 0.00310531 0.00126618
16 1 0.36792 0.0593023 0.0643799
598 1 0.691465 0.31847 0.495482
554 1 0.312291 0.184098 0.501976
150 1 0.687847 0.071633 0.121947
1159 1 0.186771 0.497577 0.191313
4 1 0.994697 0.0639867 0.0602476
130 1 0.0564277 0.0619101 0.1245
39 1 0.187404 0.133122 0.0531248
12 1 0.250545 0.0629937 0.0582368
169 1 0.243401 0.13542 0.122056
138 1 0.312913 0.0651424 0.124818
173 1 0.37626 0.128209 0.132495
51 1 0.566319 0.127616 0.0618808
55 1 0.691003 0.134878 0.0602557
28 1 0.749029 0.0727706 0.060432
158 1 0.940089 0.0637031 0.124742
44 1 0.239341 0.197413 0.0600352
43 1 0.308152 0.131077 0.0665303
47 1 0.422683 0.122729 0.0593251
52 1 0.494354 0.182605 0.0675094
182 1 0.679038 0.192929 0.120714
59 1 0.816587 0.124764 0.0594267
189 1 0.883253 0.127299 0.129019
190 1 0.941041 0.192621 0.136918
161 1 0.994447 0.129124 0.12448
67 1 0.0575091 0.245784 0.0658893
40 1 0.12291 0.184524 0.067672
71 1 0.176823 0.255238 0.0602349
170 1 0.301604 0.19678 0.124077
48 1 0.368189 0.18981 0.0533774
174 1 0.427843 0.194696 0.117269
186 1 0.818396 0.18823 0.12506
221 1 0.879356 0.252376 0.133938
36 1 0.00475243 0.18101 0.0625022
72 1 0.122774 0.31703 0.0578729
201 1 0.236938 0.253054 0.122384
205 1 0.365719 0.250081 0.113505
206 1 0.42388 0.311728 0.117841
209 1 0.492172 0.248837 0.121606
213 1 0.623044 0.254575 0.131216
95 1 0.945006 0.252214 0.06862
194 1 0.0590848 0.315953 0.12073
99 1 0.0669659 0.379432 0.0571626
103 1 0.181721 0.374029 0.0442618
76 1 0.247583 0.319463 0.0605452
202 1 0.30359 0.307913 0.120746
210 1 0.551468 0.309324 0.123986
119 1 0.688907 0.377663 0.065613
96 1 0.8758 0.311052 0.0566095
68 1 0.00231343 0.313991 0.0577218
222 1 0.935526 0.309012 0.126712
104 1 0.123159 0.442918 0.0595203
233 1 0.255046 0.378406 0.132041
237 1 0.36032 0.368958 0.120868
238 1 0.432512 0.42228 0.121709
241 1 0.494164 0.367027 0.114524
246 1 0.692076 0.434408 0.122698
124 1 0.756194 0.430834 0.063404
128 1 0.877843 0.438036 0.064584
127 1 0.928824 0.375975 0.0648926
100 1 1.00086 0.443028 0.0652453
277 1 0.618158 -0.00183241 0.249281
226 1 0.0631027 0.432481 0.119908
151 1 0.692676 0.00641273 0.187237
512 1 0.874558 0.431864 0.440355
242 1 0.56691 0.438603 0.128589
120 1 0.617309 0.437761 0.0632768
275 1 0.562417 -0.00286616 0.314844
133 1 0.117521 0.00238545 0.127219
514 1 0.056362 0.0627584 0.49161
134 1 0.181294 0.0586631 0.120128
142 1 0.436288 0.053839 0.136994
1301 1 0.636329 0.500602 0.248182
475 1 0.808814 0.252235 0.444044
146 1 0.563521 0.0665664 0.121034
526 1 0.434124 0.063169 0.494647
132 1 0.00597712 0.0618874 0.185464
136 1 0.124486 0.0611283 0.1832
177 1 0.492326 0.13074 0.12819
152 1 0.625811 0.062027 0.185531
185 1 0.752693 0.132796 0.123068
154 1 0.808105 0.0707452 0.119388
187 1 0.809755 0.125431 0.18449
160 1 0.872755 0.05497 0.189637
163 1 0.0608668 0.121825 0.181939
165 1 0.119597 0.123537 0.127032
167 1 0.179526 0.123707 0.18485
176 1 0.368334 0.196755 0.180855
175 1 0.435737 0.119735 0.190008
181 1 0.626515 0.129176 0.116449
192 1 0.869036 0.186641 0.188988
191 1 0.938611 0.121641 0.186212
162 1 0.0584897 0.187764 0.128923
197 1 0.122018 0.251584 0.130696
166 1 0.179502 0.187132 0.127691
199 1 0.185131 0.250184 0.190958
172 1 0.243542 0.190875 0.187835
180 1 0.499167 0.187436 0.199249
178 1 0.553228 0.184271 0.129876
219 1 0.814302 0.262334 0.184515
223 1 0.930221 0.246461 0.1975
198 1 0.177275 0.317585 0.120914
204 1 0.243939 0.30739 0.184557
203 1 0.309773 0.256429 0.180759
207 1 0.435728 0.253221 0.184652
215 1 0.690324 0.259638 0.195775
217 1 0.749743 0.251459 0.134159
220 1 0.750605 0.315126 0.188208
193 1 0.00269427 0.249216 0.13272
231 1 0.186478 0.371305 0.190611
243 1 0.560644 0.371886 0.185284
245 1 0.629024 0.374763 0.125382
214 1 0.695946 0.316163 0.122804
218 1 0.812301 0.311062 0.118396
253 1 0.876449 0.365307 0.124254
224 1 0.874756 0.316176 0.188967
229 1 0.120451 0.375003 0.130796
230 1 0.17749 0.434803 0.128688
236 1 0.2425 0.431757 0.192205
240 1 0.368455 0.446008 0.193002
239 1 0.429072 0.380205 0.195609
244 1 0.499092 0.423483 0.178783
248 1 0.626617 0.434822 0.193603
249 1 0.753906 0.382679 0.127904
252 1 0.754349 0.442652 0.187842
250 1 0.813923 0.438028 0.124318
254 1 0.936685 0.439642 0.120628
225 1 0.990698 0.375333 0.123143
1171 1 0.562028 0.490649 0.19456
232 1 0.116503 0.440938 0.194948
500 1 0.506754 0.436232 0.430155
234 1 0.306884 0.444179 0.126473
256 1 0.876532 0.436873 0.187731
228 1 0.00493717 0.439198 0.182976
586 1 0.306178 0.316393 0.494387
1295 1 0.439983 0.497775 0.313073
266 1 0.302855 0.0665832 0.24601
144 1 0.368434 0.0673002 0.194288
278 1 0.682101 0.0613815 0.246538
156 1 0.748847 0.0659292 0.191388
282 1 0.8121 0.0672155 0.24966
129 1 0.994853 0.00229035 0.129854
140 1 0.246492 0.0735452 0.181528
171 1 0.306471 0.132904 0.183553
270 1 0.435749 0.0673648 0.251061
148 1 0.499248 0.0625328 0.19556
309 1 0.628696 0.127061 0.252292
317 1 0.866851 0.129516 0.250799
286 1 0.924869 0.0643817 0.254997
168 1 0.124675 0.189349 0.192841
294 1 0.181318 0.18541 0.251315
179 1 0.565838 0.128264 0.191607
306 1 0.568386 0.183823 0.255637
184 1 0.623553 0.198 0.189908
183 1 0.687213 0.130133 0.193263
313 1 0.745158 0.125967 0.253545
314 1 0.807499 0.195671 0.251629
195 1 0.0621331 0.251733 0.193555
298 1 0.30104 0.194052 0.242887
302 1 0.43488 0.186957 0.250097
337 1 0.507163 0.2488 0.258508
341 1 0.630468 0.258892 0.255551
310 1 0.685903 0.192554 0.254147
188 1 0.748371 0.191428 0.185307
345 1 0.743415 0.250868 0.25828
164 1 0.000884773 0.177832 0.186523
326 1 0.177779 0.315543 0.250462
330 1 0.310751 0.315213 0.257078
208 1 0.372497 0.313698 0.197957
211 1 0.560078 0.253382 0.192089
216 1 0.627572 0.312706 0.192178
342 1 0.69261 0.3212 0.254679
346 1 0.815955 0.313823 0.253831
349 1 0.872992 0.247577 0.253143
196 1 0.997343 0.312942 0.181649
200 1 0.12037 0.312707 0.188238
235 1 0.315012 0.374322 0.187572
365 1 0.370846 0.376806 0.256636
212 1 0.486976 0.316623 0.183392
373 1 0.624454 0.369887 0.2541
255 1 0.936835 0.373615 0.187912
227 1 0.0565332 0.37395 0.19058
357 1 0.12038 0.372294 0.249603
362 1 0.307498 0.437177 0.24865
366 1 0.432263 0.439014 0.256673
247 1 0.691597 0.374049 0.185352
377 1 0.758889 0.378332 0.249393
251 1 0.818404 0.373549 0.188467
511 1 0.942698 0.376833 0.444347
525 1 0.372907 -0.00095912 0.493368
374 1 0.689653 0.428703 0.25297
507 1 0.814314 0.37521 0.44352
382 1 0.939543 0.431535 0.247359
1303 1 0.689316 0.495042 0.317275
262 1 0.176743 0.0661014 0.256584
496 1 0.375733 0.439069 0.44141
272 1 0.370169 0.064795 0.309105
276 1 0.503663 0.0580384 0.312247
274 1 0.563371 0.062677 0.248201
288 1 0.871685 0.0606411 0.316871
463 1 0.434998 0.247386 0.440764
260 1 0.994361 0.0596599 0.310397
289 1 -0.000639641 0.120613 0.250509
258 1 0.0674581 0.055541 0.240641
295 1 0.188264 0.12611 0.319644
268 1 0.248079 0.0635222 0.31315
305 1 0.502466 0.124031 0.255598
291 1 0.0574068 0.133029 0.320732
293 1 0.121875 0.128672 0.257858
297 1 0.237677 0.124481 0.244686
301 1 0.367185 0.129818 0.248908
303 1 0.436554 0.12314 0.310834
316 1 0.747505 0.180058 0.314476
292 1 0.995879 0.185399 0.31569
290 1 0.0555968 0.184726 0.253387
296 1 0.121322 0.188151 0.316696
300 1 0.247467 0.187466 0.308278
333 1 0.371394 0.245319 0.247285
308 1 0.508951 0.182466 0.317753
312 1 0.625562 0.181893 0.317183
343 1 0.683442 0.245818 0.321711
347 1 0.808505 0.247807 0.319877
318 1 0.935694 0.177958 0.249823
325 1 0.124495 0.247865 0.25259
327 1 0.191025 0.251053 0.308404
329 1 0.244391 0.254711 0.247877
334 1 0.438638 0.311025 0.253441
344 1 0.624368 0.312089 0.323376
348 1 0.747474 0.316326 0.320562
352 1 0.870961 0.313352 0.316136
321 1 0.998129 0.247607 0.252142
322 1 0.0540926 0.306629 0.255752
328 1 0.120374 0.309877 0.312914
361 1 0.246649 0.371052 0.250614
336 1 0.373442 0.31266 0.309307
338 1 0.563608 0.314692 0.246784
379 1 0.811272 0.375433 0.32393
350 1 0.932152 0.309374 0.250763
353 1 0.994755 0.362967 0.249424
367 1 0.440318 0.374279 0.308757
369 1 0.506754 0.375817 0.253008
378 1 0.8065 0.446767 0.254891
381 1 0.87327 0.373479 0.253099
354 1 0.0500381 0.43683 0.25486
360 1 0.12603 0.434641 0.304759
358 1 0.183571 0.435219 0.249331
368 1 0.375625 0.439218 0.31691
1039 1 0.437408 0.492927 0.0700977
625 1 0.507203 0.378315 0.499849
370 1 0.571032 0.43514 0.251913
488 1 0.132842 0.438598 0.435349
114 1 0.560165 0.432587 -0.000509799
468 1 0.493732 0.308663 0.429232
1297 1 0.497254 0.491769 0.245024
264 1 0.118266 0.0578629 0.318617
267 1 0.310348 0.00836655 0.305539
487 1 0.186569 0.376901 0.434384
280 1 0.6233 0.0587689 0.308464
406 1 0.689134 0.0494035 0.376549
284 1 0.747661 0.0591388 0.309376
410 1 0.809072 0.0597847 0.375698
386 1 0.0533657 0.0608529 0.377562
394 1 0.31835 0.0634111 0.372046
433 1 0.498259 0.127105 0.376394
311 1 0.688498 0.123189 0.312949
441 1 0.746174 0.114028 0.373544
315 1 0.813197 0.124707 0.322475
319 1 0.930945 0.124635 0.319006
414 1 0.93539 0.061759 0.37539
417 1 0.992455 0.121721 0.369799
421 1 0.12916 0.119804 0.369293
422 1 0.190818 0.186975 0.374367
299 1 0.306869 0.126667 0.307741
304 1 0.376941 0.185695 0.317293
430 1 0.439094 0.189673 0.377072
307 1 0.566412 0.117937 0.311382
442 1 0.808201 0.188645 0.381757
320 1 0.869782 0.187643 0.313153
446 1 0.928113 0.187993 0.37622
418 1 0.0645083 0.193819 0.37628
461 1 0.37299 0.249536 0.371044
434 1 0.567375 0.188574 0.381005
438 1 0.686502 0.184578 0.376235
473 1 0.75111 0.254069 0.385092
477 1 0.865207 0.244761 0.384606
449 1 0.99267 0.246418 0.37158
323 1 0.0544356 0.240049 0.31184
331 1 0.316478 0.247282 0.311757
335 1 0.437217 0.245063 0.317262
339 1 0.572373 0.251851 0.318535
466 1 0.563365 0.313 0.379307
474 1 0.811077 0.31263 0.373748
351 1 0.933857 0.247907 0.315576
324 1 0.998732 0.305985 0.315987
355 1 0.0562005 0.376989 0.324438
332 1 0.248415 0.318952 0.317692
462 1 0.433564 0.307118 0.372315
340 1 0.499659 0.313189 0.316604
371 1 0.569438 0.373672 0.31665
501 1 0.62531 0.369908 0.384468
375 1 0.679758 0.371982 0.324885
470 1 0.688197 0.309349 0.37934
509 1 0.881239 0.373669 0.372914
478 1 0.936597 0.310815 0.378205
359 1 0.188777 0.376066 0.30908
363 1 0.312709 0.374728 0.31204
493 1 0.380715 0.374603 0.365795
498 1 0.569702 0.432647 0.375812
376 1 0.628697 0.438207 0.318213
502 1 0.687459 0.439218 0.378054
380 1 0.746622 0.429795 0.313452
383 1 0.941291 0.3762 0.311807
486 1 0.185946 0.4417 0.373014
364 1 0.255145 0.436208 0.310502
494 1 0.4344 0.436975 0.376705
372 1 0.505614 0.437973 0.313057
522 1 0.300309 0.0621985 0.495197
384 1 0.873412 0.442521 0.316609
356 1 1.0016 0.435275 0.320564
455 1 0.179555 0.248029 0.435093
390 1 0.191011 0.0618024 0.371074
281 1 0.749387 0.000186675 0.251714
459 1 0.311395 0.252557 0.443805
398 1 0.431077 0.0575779 0.366463
404 1 0.501274 0.059245 0.433891
412 1 0.756796 0.0552071 0.447569
155 1 0.803395 0.00758717 0.183697
428 1 0.252778 0.189558 0.435275
392 1 0.119462 0.0650651 0.435962
425 1 0.250803 0.122463 0.373192
427 1 0.312729 0.127287 0.43546
402 1 0.557948 0.0616143 0.372746
408 1 0.625372 0.0628484 0.441515
445 1 0.870542 0.126893 0.380273
424 1 0.118139 0.19205 0.437544
423 1 0.187562 0.123818 0.438595
429 1 0.374336 0.123411 0.370803
431 1 0.442552 0.120954 0.435135
437 1 0.623979 0.119269 0.377245
426 1 0.316488 0.196245 0.376823
465 1 0.499598 0.246361 0.373432
471 1 0.688651 0.247261 0.440991
448 1 0.868887 0.191415 0.453331
420 1 0.00370843 0.189659 0.43482
451 1 0.058478 0.251812 0.438608
453 1 0.124103 0.251526 0.370157
460 1 0.240492 0.312296 0.433365
457 1 0.250635 0.251329 0.371164
464 1 0.370565 0.318564 0.43636
467 1 0.558739 0.257172 0.436012
469 1 0.629049 0.250298 0.381406
476 1 0.760573 0.317461 0.442214
479 1 0.940684 0.250394 0.435141
452 1 0.00161529 0.316332 0.437122
450 1 0.060944 0.314247 0.380816
456 1 0.122331 0.306724 0.438702
454 1 0.181447 0.312943 0.368037
458 1 0.317665 0.310043 0.372892
491 1 0.307427 0.378106 0.433703
495 1 0.445413 0.375588 0.438427
497 1 0.491119 0.376189 0.372084
499 1 0.560956 0.375082 0.438143
472 1 0.623467 0.308782 0.439996
505 1 0.750056 0.373423 0.379831
480 1 0.874588 0.315554 0.43742
481 1 0.996256 0.3808 0.378571
482 1 0.0687585 0.442865 0.378398
485 1 0.130127 0.380186 0.369328
489 1 0.251596 0.378689 0.372692
503 1 0.695167 0.38562 0.442496
506 1 0.813648 0.441499 0.372417
510 1 0.934381 0.442452 0.381191
484 1 0.007121 0.439217 0.438088
403 1 0.567909 0.000745701 0.433028
492 1 0.24678 0.436723 0.433764
490 1 0.313432 0.435097 0.377179
529 1 0.507321 0.00515226 0.499639
444 1 0.748971 0.187316 0.4395
27 1 0.815811 -0.00072204 0.0592663
504 1 0.627163 0.4385 0.437022
440 1 0.634192 0.179026 0.445023
415 1 0.933208 -0.000210921 0.439646
638 1 0.934867 0.444308 0.498949
436 1 0.499939 0.186931 0.434053
23 1 0.689004 0.00808663 0.058425
432 1 0.380009 0.177464 0.433908
508 1 0.762417 0.438815 0.438488
388 1 0.988514 0.0583187 0.436808
33 1 0.00439853 0.125726 0.00215299
447 1 0.931848 0.134431 0.441791
483 1 0.0701415 0.372959 0.437565
396 1 0.251793 0.0585473 0.428761
400 1 0.378196 0.0683752 0.4331
419 1 0.0576078 0.126477 0.437275
435 1 0.568368 0.121882 0.436974
439 1 0.692662 0.113968 0.438507
626 1 0.561819 0.441692 0.496326
443 1 0.812629 0.1189 0.446225
416 1 0.873466 0.0655656 0.439219
614 1 0.188547 0.431577 0.495872
401 1 0.498428 -0.00356938 0.376833
1537 1 0.998949 0.498979 0.497787
1175 1 0.688716 0.500968 0.185485
629 1 0.621172 0.376242 0.497809
157 1 0.869017 0.00224177 0.126929
1299 1 0.568586 0.49649 0.317945
1179 1 0.818122 0.500614 0.190356
413 1 0.873266 0.000172141 0.378528
153 1 0.74678 0.012501 0.120122
86 1 0.678548 0.312645 0.00381747
1417 1 0.258099 0.49674 0.375872
14 1 0.433372 0.0590053 0.0044646
1421 1 0.379207 0.498492 0.374777
41 1 0.253037 0.124674 0.00280067
1047 1 0.695021 0.496406 0.0618832
617 1 0.250212 0.378628 0.500261
149 1 0.631499 0.00714445 0.12119
265 1 0.247159 0.000849567 0.250546
1027 1 0.0633593 0.495095 0.0629821
1435 1 0.817762 0.498513 0.437045
1043 1 0.55517 0.494656 0.057746
1041 1 0.498011 0.493355 -0.000556147
1305 1 0.744456 0.501729 0.253708
1541 1 0.13339 0.499549 0.496297
285 1 0.872239 0.00157837 0.255051
1055 1 0.936725 0.49987 0.0580559
553 1 0.249049 0.130012 0.496642
73 1 0.248034 0.255407 0.00160787
585 1 0.249443 0.254783 0.498007
550 1 0.180371 0.185568 0.489165
549 1 0.117558 0.132635 0.491504
1549 1 0.372945 0.498425 0.49766
93 1 0.874722 0.238445 0.0016387
593 1 0.498957 0.25619 0.500491
74 1 0.305812 0.314184 0.00518154
538 1 0.814133 0.0698963 0.509589
536 1 0.627708 0.0598297 0.564311
897 1 0.00331602 0.000458587 0.88112
544 1 0.879007 0.0592025 0.558845
637 1 0.866585 0.378743 0.50868
2 1 0.0647458 0.0596872 1.00144
524 1 0.245456 0.054841 0.558907
113 1 0.499059 0.370783 0.993375
101 1 0.119449 0.377407 0.990245
532 1 0.50157 0.0630957 0.557589
602 1 0.80668 0.318359 0.50843
567 1 0.682261 0.119432 0.568366
571 1 0.819597 0.12835 0.565967
18 1 0.571655 0.0667928 0.994818
516 1 0.994713 0.0589558 0.563866
533 1 0.624206 0.00433742 0.501408
551 1 0.185804 0.131132 0.563736
556 1 0.247601 0.188655 0.560706
630 1 0.684748 0.44353 0.500966
797 1 0.878525 0.00533374 0.747596
563 1 0.56627 0.126868 0.55346
105 1 0.248111 0.377528 0.991171
572 1 0.751402 0.184617 0.569837
576 1 0.868591 0.197547 0.559961
575 1 0.933955 0.142501 0.566618
78 1 0.436126 0.307366 0.996116
552 1 0.122127 0.186857 0.556341
583 1 0.190474 0.253689 0.563701
587 1 0.326094 0.244983 0.574817
89 1 0.751118 0.254283 0.99807
595 1 0.559849 0.24768 0.555926
599 1 0.684164 0.25314 0.560993
603 1 0.810577 0.254717 0.568359
22 1 0.690307 0.0678443 0.992574
98 1 0.0654528 0.442369 0.996429
607 1 0.935541 0.251212 0.565876
579 1 0.063611 0.254485 0.556167
584 1 0.13501 0.311153 0.567167
588 1 0.247686 0.315595 0.562609
1823 1 0.941446 0.497813 0.816574
591 1 0.436869 0.254418 0.559313
1551 1 0.439519 0.499805 0.565847
600 1 0.620939 0.317112 0.563755
1815 1 0.693851 0.498852 0.806242
604 1 0.744989 0.313163 0.563978
110 1 0.444544 0.432709 0.993656
1821 1 0.875626 0.494365 0.752966
615 1 0.199298 0.375694 0.561147
667 1 0.81468 0.00461271 0.687269
539 1 0.81564 0.00752214 0.567114
1693 1 0.870049 0.499852 0.625795
608 1 0.869637 0.317028 0.567964
580 1 0.00498089 0.312383 0.559718
611 1 0.061069 0.372575 0.568429
616 1 0.125316 0.446247 0.561193
620 1 0.255202 0.445477 0.56431
1687 1 0.683634 0.496995 0.694387
623 1 0.431489 0.38172 0.563992
921 1 0.755002 0.00105658 0.872634
628 1 0.496988 0.436224 0.562304
566 1 0.693004 0.186967 0.503508
632 1 0.62684 0.437302 0.563503
594 1 0.560822 0.314589 0.502873
636 1 0.749517 0.445705 0.56563
635 1 0.809311 0.380917 0.561751
639 1 0.939887 0.381338 0.56793
612 1 0.00657366 0.444321 0.559427
1543 1 0.189891 0.499461 0.556738
66 1 0.0577089 0.32112 0.992026
10 1 0.311655 0.0538802 0.994672
102 1 0.188202 0.438159 0.995082
771 1 0.0595921 0.000160981 0.815839
605 1 0.868764 0.260534 0.506945
25 1 0.745848 0.00940016 0.999168
640 1 0.877378 0.442474 0.563534
122 1 0.809165 0.435284 0.995023
927 1 0.937741 0.00295189 0.937136
520 1 0.123038 0.0607616 0.566769
1567 1 0.936883 0.500571 0.558588
1817 1 0.749771 0.49863 0.747531
54 1 0.68264 0.194272 0.999917
658 1 0.559471 0.058283 0.621631
540 1 0.75425 0.0690951 0.56864
666 1 0.820694 0.0652322 0.628016
670 1 0.934242 0.0716106 0.619177
547 1 0.0605117 0.1325 0.558212
677 1 0.126923 0.131662 0.624557
646 1 0.18904 0.0571979 0.625098
528 1 0.373328 0.0649215 0.564321
559 1 0.444253 0.126084 0.557604
693 1 0.615867 0.122108 0.620234
701 1 0.877278 0.130412 0.626559
673 1 0.00550812 0.134772 0.621985
555 1 0.303415 0.120196 0.570082
689 1 0.500909 0.119295 0.617115
690 1 0.564008 0.198567 0.627394
568 1 0.620969 0.193247 0.565108
694 1 0.680758 0.186067 0.629251
702 1 0.946261 0.193143 0.633197
709 1 0.129773 0.248962 0.622103
682 1 0.311296 0.183899 0.629257
560 1 0.377628 0.18217 0.570262
686 1 0.443685 0.182566 0.623166
564 1 0.500254 0.191382 0.565669
721 1 0.494373 0.256069 0.624619
725 1 0.619215 0.256893 0.617856
729 1 0.744285 0.247892 0.621352
698 1 0.81597 0.188573 0.625065
548 1 0.994833 0.194033 0.55901
706 1 0.0769464 0.312042 0.628241
713 1 0.255457 0.254034 0.621106
714 1 0.319485 0.312744 0.631363
592 1 0.379816 0.315826 0.561847
596 1 0.496953 0.312431 0.564296
730 1 0.80897 0.31735 0.630733
733 1 0.878338 0.251292 0.625932
710 1 0.188478 0.324875 0.629073
745 1 0.257381 0.373871 0.626314
619 1 0.309701 0.370682 0.560699
749 1 0.376594 0.380027 0.627569
631 1 0.683306 0.378118 0.564464
734 1 0.938611 0.309567 0.626398
738 1 0.0627047 0.435749 0.621651
741 1 0.130952 0.383207 0.618687
746 1 0.316829 0.442934 0.63007
750 1 0.443174 0.43724 0.62514
627 1 0.568732 0.380389 0.562256
761 1 0.742784 0.378707 0.627895
762 1 0.806822 0.433891 0.6225
765 1 0.871525 0.376828 0.626038
737 1 0.996741 0.3735 0.624565
742 1 0.187009 0.442085 0.625637
1819 1 0.810956 0.492949 0.81608
624 1 0.376404 0.443327 0.56699
909 1 0.375158 0.00209468 0.876105
947 1 0.562376 0.126161 0.93244
569 1 0.746944 0.12317 0.509546
109 1 0.370583 0.382709 0.99154
1029 1 0.124944 0.497943 0.997084
77 1 0.373079 0.25411 0.986866
61 1 0.885667 0.124504 0.992754
652 1 0.243636 0.0577125 0.689413
650 1 0.301456 0.0483517 0.626171
916 1 0.49915 0.0602653 0.934879
517 1 0.119018 0.000736839 0.499291
81 1 0.494767 0.23741 0.992306
662 1 0.690107 0.0597425 0.628076
633 1 0.746787 0.380571 0.508261
621 1 0.376321 0.382514 0.507621
642 1 0.0562303 0.0706329 0.615256
679 1 0.17713 0.123141 0.687543
654 1 0.443647 0.0642254 0.634255
660 1 0.506669 0.0552395 0.689658
697 1 0.748911 0.129311 0.627347
672 1 0.887817 0.0686772 0.687536
703 1 0.954709 0.128268 0.692499
674 1 0.0623696 0.19292 0.616029
680 1 0.128254 0.190913 0.686413
681 1 0.243799 0.122187 0.63046
685 1 0.37693 0.11852 0.631876
687 1 0.452557 0.125288 0.68856
676 1 0.00865524 0.19064 0.685411
707 1 0.0728184 0.249851 0.682062
678 1 0.195508 0.189803 0.625126
696 1 0.620915 0.187937 0.686972
727 1 0.680428 0.25584 0.684312
704 1 0.876822 0.188189 0.689611
705 1 0.00979632 0.255162 0.625384
712 1 0.131664 0.321542 0.692501
716 1 0.253591 0.314675 0.686683
717 1 0.381655 0.243767 0.635726
718 1 0.436364 0.326196 0.634864
722 1 0.559961 0.315411 0.62386
736 1 0.873327 0.304975 0.689019
708 1 0.00744368 0.31429 0.691859
739 1 0.0641281 0.377443 0.690318
743 1 0.189924 0.383336 0.685525
747 1 0.315215 0.37861 0.687109
720 1 0.37616 0.30572 0.68957
726 1 0.686038 0.318166 0.626241
763 1 0.807184 0.375191 0.691711
767 1 0.937082 0.370303 0.681865
744 1 0.120919 0.441368 0.684004
748 1 0.251876 0.443806 0.682664
753 1 0.501998 0.37729 0.623336
757 1 0.622528 0.378338 0.624712
759 1 0.688465 0.378721 0.686282
766 1 0.930963 0.440646 0.627267
740 1 0.992624 0.434689 0.684535
70 1 0.182478 0.309433 0.994578
613 1 0.125154 0.37219 0.50127
975 1 0.447603 0.246779 0.929074
754 1 0.564704 0.440026 0.627081
760 1 0.626393 0.43306 0.691813
758 1 0.681839 0.441869 0.624863
764 1 0.743804 0.439933 0.68844
935 1 0.191804 0.117322 0.930441
904 1 0.128025 0.0626315 0.931352
6 1 0.190479 0.0576324 0.993976
648 1 0.123951 0.056494 0.681997
1695 1 0.932388 0.494874 0.689589
778 1 0.311267 0.0523414 0.748641
82 1 0.562172 0.313425 0.997323
656 1 0.364241 0.0532494 0.680128
664 1 0.624186 0.0627804 0.680368
915 1 0.556814 -0.00265626 0.940771
668 1 0.748473 0.0650229 0.684543
1943 1 0.692369 0.498179 0.946019
85 1 0.618242 0.250444 0.995429
675 1 0.060141 0.123397 0.690758
774 1 0.181789 0.0633442 0.753982
809 1 0.241769 0.126458 0.749056
817 1 0.509416 0.118281 0.749388
794 1 0.808437 0.0633427 0.748972
644 1 -0.000574561 0.0595061 0.685976
805 1 0.123059 0.122436 0.748086
683 1 0.305634 0.117282 0.690921
692 1 0.504232 0.188429 0.680747
691 1 0.558911 0.122265 0.684145
818 1 0.562912 0.185035 0.742265
695 1 0.687484 0.12661 0.68884
700 1 0.748388 0.186895 0.685985
699 1 0.821608 0.124427 0.688568
829 1 0.880902 0.128814 0.750301
830 1 0.935601 0.19133 0.749383
801 1 0.0080615 0.122235 0.758432
837 1 0.119468 0.248545 0.753502
806 1 0.189916 0.189734 0.74143
684 1 0.252316 0.185301 0.682467
810 1 0.312361 0.180894 0.749091
688 1 0.370459 0.182792 0.690846
822 1 0.687895 0.185066 0.746676
861 1 0.869379 0.248639 0.747224
735 1 0.940663 0.254066 0.684971
833 1 0.995486 0.250646 0.74907
834 1 0.0611504 0.303739 0.753323
711 1 0.198852 0.251035 0.682755
838 1 0.187446 0.313411 0.751799
715 1 0.316011 0.246179 0.688158
719 1 0.436631 0.254713 0.69805
723 1 0.56351 0.254314 0.683952
853 1 0.628499 0.243616 0.750287
857 1 0.744808 0.24806 0.741956
731 1 0.807001 0.245761 0.688937
862 1 0.94203 0.313201 0.749387
873 1 0.244547 0.374772 0.749631
842 1 0.311896 0.31305 0.755795
751 1 0.442023 0.389113 0.68936
724 1 0.50925 0.319904 0.689016
728 1 0.625524 0.31659 0.682919
885 1 0.623298 0.379976 0.749109
854 1 0.686711 0.310666 0.74659
732 1 0.746436 0.308929 0.682568
858 1 0.81782 0.316186 0.749783
893 1 0.877964 0.373154 0.754016
865 1 0.999573 0.375185 0.753937
874 1 0.310128 0.447647 0.744316
752 1 0.379485 0.446541 0.689102
877 1 0.379278 0.379352 0.74399
878 1 0.432477 0.445281 0.756723
755 1 0.567302 0.377066 0.684658
889 1 0.750425 0.374355 0.751834
890 1 0.808507 0.437085 0.749211
768 1 0.866289 0.439541 0.686837
894 1 0.941624 0.433478 0.760912
866 1 0.0605825 0.448504 0.751868
870 1 0.186453 0.442716 0.748619
963 1 0.0650543 0.240117 0.936608
589 1 0.373817 0.249552 0.500748
756 1 0.509307 0.442277 0.690287
882 1 0.568361 0.439919 0.757973
943 1 0.432507 0.125797 0.934055
782 1 0.440998 0.0594855 0.743164
1667 1 0.0485794 0.497441 0.689743
590 1 0.433505 0.313032 0.496567
908 1 0.246285 0.0566555 0.934776
976 1 0.369347 0.313842 0.929184
1685 1 0.624207 0.49793 0.623618
770 1 0.0629916 0.056511 0.743387
807 1 0.190532 0.12412 0.81763
780 1 0.256075 0.0588548 0.809592
813 1 0.374646 0.110907 0.736413
786 1 0.576198 0.0642529 0.748874
792 1 0.627119 0.0672933 0.81424
790 1 0.674421 0.0612538 0.746733
796 1 0.736312 0.0560528 0.803966
798 1 0.944745 0.0654397 0.749673
804 1 0.998537 0.178749 0.821502
812 1 0.253263 0.195893 0.813572
814 1 0.439602 0.179239 0.756345
821 1 0.627253 0.129982 0.742557
824 1 0.624618 0.186895 0.808084
823 1 0.684948 0.128535 0.812763
825 1 0.747923 0.129203 0.749272
827 1 0.809916 0.130838 0.808518
831 1 0.931368 0.122638 0.812682
802 1 0.0646437 0.186285 0.749962
843 1 0.30692 0.254424 0.810468
845 1 0.374157 0.249067 0.755604
849 1 0.508671 0.249517 0.742836
826 1 0.805229 0.184577 0.746694
863 1 0.928403 0.254883 0.80694
840 1 0.120374 0.305265 0.813087
841 1 0.250298 0.257395 0.747855
851 1 0.564619 0.247171 0.804221
856 1 0.630834 0.316054 0.807304
855 1 0.683011 0.245383 0.814128
859 1 0.815023 0.241932 0.81175
867 1 0.0603091 0.374648 0.814412
871 1 0.186266 0.382529 0.808286
844 1 0.244828 0.320288 0.810614
846 1 0.430417 0.31471 0.756004
879 1 0.430151 0.378998 0.811682
881 1 0.502839 0.373707 0.754151
850 1 0.569605 0.312322 0.745814
887 1 0.698581 0.371427 0.815714
891 1 0.80762 0.368477 0.825363
864 1 0.866861 0.313441 0.817517
895 1 0.935858 0.365262 0.812446
869 1 0.116597 0.3848 0.754958
876 1 0.24972 0.445568 0.806508
875 1 0.304353 0.376566 0.807873
884 1 0.50506 0.442429 0.811731
883 1 0.558118 0.378239 0.816847
888 1 0.625638 0.440846 0.818447
868 1 0.00581252 0.436914 0.81668
900 1 0.0073852 0.058932 0.935869
872 1 0.125129 0.439406 0.814919
991 1 0.940839 0.243407 0.946559
959 1 0.941577 0.132845 0.934996
971 1 0.314069 0.255961 0.9294
880 1 0.36674 0.433893 0.805765
57 1 0.743513 0.127834 0.997068
886 1 0.686562 0.435571 0.754429
892 1 0.750022 0.433294 0.813359
944 1 0.373049 0.184984 0.932773
50 1 0.563598 0.184175 0.998491
45 1 0.353483 0.130583 0.993848
772 1 0.00935184 0.066607 0.819404
902 1 0.187193 0.056542 0.875204
565 1 0.628609 0.129288 0.501711
578 1 0.0640873 0.314637 0.501722
1012 1 0.499833 0.437137 0.93573
601 1 0.750733 0.250412 0.509056
918 1 0.689406 0.0646259 0.866879
1003 1 0.310489 0.37857 0.937203
940 1 0.242955 0.184773 0.939581
776 1 0.118956 0.0581976 0.811365
803 1 0.0692014 0.121982 0.811336
933 1 0.127345 0.126426 0.8747
784 1 0.37923 0.0582844 0.801802
788 1 0.495889 0.0576278 0.812428
953 1 0.751556 0.118675 0.867758
922 1 0.811091 0.0626227 0.86363
800 1 0.874714 0.0535253 0.814457
957 1 0.868484 0.126895 0.873467
926 1 0.935089 0.0693327 0.87853
808 1 0.129061 0.186308 0.807764
811 1 0.312239 0.116888 0.797664
815 1 0.434003 0.115826 0.811084
820 1 0.502398 0.191238 0.808677
819 1 0.560069 0.129818 0.814046
950 1 0.692864 0.18276 0.873842
954 1 0.803522 0.182933 0.875597
930 1 0.0690267 0.183934 0.872741
839 1 0.189513 0.256449 0.810418
965 1 0.124216 0.250177 0.87301
816 1 0.376924 0.184819 0.813022
981 1 0.624828 0.247078 0.882474
828 1 0.748092 0.190286 0.806449
985 1 0.746987 0.245487 0.874686
832 1 0.879812 0.189571 0.810372
835 1 0.0553278 0.240738 0.811728
970 1 0.308706 0.3159 0.868606
847 1 0.436569 0.252693 0.810647
977 1 0.51019 0.255358 0.87034
982 1 0.681034 0.313922 0.877486
986 1 0.804715 0.306521 0.881329
989 1 0.870973 0.241884 0.875782
836 1 0.995794 0.30195 0.817183
966 1 0.180733 0.31277 0.874299
848 1 0.375159 0.311845 0.817778
852 1 0.510871 0.306108 0.808036
860 1 0.750098 0.300242 0.804389
1017 1 0.747158 0.378168 0.886183
990 1 0.929187 0.310339 0.871389
993 1 0.998486 0.372351 0.871726
994 1 0.0666778 0.438806 0.877296
997 1 0.12814 0.3826 0.879363
1001 1 0.250183 0.384199 0.866189
1006 1 0.439181 0.451776 0.874987
1009 1 0.496437 0.379099 0.871182
1013 1 0.629997 0.369957 0.881657
1018 1 0.812893 0.437324 0.877296
1021 1 0.872763 0.371833 0.880508
896 1 0.869013 0.429397 0.814631