ITEM: TIMESTEP
100000
ITEM: NUMBER OF ATOMS
2048
ITEM: BOX BOUNDS pp pp pp
0.0000000000000000e+00 1.3679807573413575e+01
0.0000000000000000e+00 1.3679807573413575e+01
0.0000000000000000e+00 1.3679807573413575e+01
ITEM: ATOMS id type xs ys zs
491 1 0.510291 0.0136131 0.172504
1732 1 0.866481 0.464402 0.337517
80 1 0.364042 0.458957 0.130158
758 1 0.91034 0.0052475 0.398887
332 1 0.283197 0.0283006 0.0648647
568 1 0.766706 0.472604 0.157188
1579 1 0.550579 0.273078 0.392717
1847 1 0.156211 0.445154 0.222179
1702 1 0.0355085 0.108949 0.0601007
970 1 0.841553 0.186549 0.039153
892 1 0.964575 0.360276 0.190417
1423 1 0.235011 0.118592 0.0640164
1542 1 0.0234437 0.42664 0.453869
1058 1 0.0334489 0.0292847 0.491322
1601 1 0.478993 0.00994779 0.298867
830 1 0.417124 0.239968 0.436073
968 1 0.4885 0.22434 0.40171
1799 1 0.56493 0.463893 0.208299
170 1 0.704963 0.237503 0.422793
958 1 0.955983 0.166603 0.430886
930 1 0.0354687 0.470763 0.267136
1026 1 0.64974 0.301867 0.0347439
1840 1 0.0481169 0.411949 0.0657902
1547 1 0.470045 0.0424039 0.229785
7 1 0.751429 0.145562 0.405507
773 1 0.170246 0.173455 0.128183
944 1 0.0339441 0.0379638 0.391743
1353 1 0.655606 0.0938134 0.0819872
145 1 0.0974662 0.0776917 0.0412059
537 1 0.820496 0.194367 0.122663
971 1 0.470158 0.352974 0.062944
1191 1 0.350498 0.356763 0.145223
342 1 0.533696 0.152172 0.132452
281 1 0.86899 0.237916 0.0828392
1091 1 0.094394 0.321845 0.109354
8 1 0.416493 0.23867 0.138136
1982 1 0.360264 0.426635 0.35917
496 1 0.86309 0.464432 0.266226
333 1 0.221074 0.486755 0.21231
1991 1 0.604077 0.119277 0.401104
12 1 0.542122 0.461299 0.140268
341 1 0.940137 0.0290408 0.187597
184 1 0.282953 0.34502 0.14651
600 1 0.685956 0.0908175 0.441497
37 1 0.226378 0.106456 0.388146
1202 1 0.76486 0.474542 0.0260968
881 1 0.382257 0.40921 0.193038
1468 1 0.605114 0.089606 0.140802
1475 1 0.490723 0.00920439 0.432693
694 1 0.170989 0.390439 0.420933
983 1 0.665709 0.230112 0.0934722
1326 1 0.35812 0.275232 0.0812579
1932 1 0.226826 0.066573 0.483094
1692 1 0.249022 0.186371 0.0580964
1731 1 0.570032 0.173218 0.427901
114 1 0.957369 0.415184 0.419408
259 1 0.475852 0.074435 0.15826
32 1 0.476804 0.0804588 0.316429
875 1 0.15441 0.289035 0.20233
799 1 0.27143 0.32651 0.491938
1754 1 0.30766 0.168764 0.176852
1205 1 0.222028 0.419808 0.0118022
1918 1 0.648743 0.281922 0.291031
950 1 0.180027 0.056119 0.0247526
1231 1 0.125295 0.34419 0.173315
1181 1 0.907753 0.206607 0.372578
1958 1 0.000608947 0.297164 0.246738
637 1 0.973966 0.186103 0.076616
920 1 0.145849 0.377148 0.0391162
1059 1 0.441913 0.25672 0.213161
265 1 0.717114 0.477806 0.390021
91 1 0.255956 0.298996 0.233035
157 1 0.0771883 0.0342556 0.143313
1844 1 0.389674 0.203754 0.205384
895 1 0.299952 0.388969 0.377949
680 1 0.454468 0.347355 0.36924
532 1 0.799672 0.407294 0.185033
1003 1 0.178631 0.372109 0.115761
1355 1 0.488116 0.242102 0.135845
1343 1 0.415657 0.313773 0.130546
802 1 0.530061 0.365054 0.0108681
608 1 0.942258 0.0681913 0.329827
1150 1 0.441507 0.473256 0.151604
468 1 0.786243 0.433523 0.0933039
1696 1 0.276644 0.262405 0.070012
682 1 0.683885 0.156383 0.0556142
902 1 0.652314 0.496542 0.422905
1687 1 0.180065 0.213724 0.27004
595 1 0.311296 0.275941 0.148957
976 1 0.176775 0.289607 0.0458938
1251 1 0.667174 0.151478 0.475458
412 1 0.967345 0.194896 0.154105
508 1 0.431237 0.400656 0.0266795
1287 1 0.281566 0.411801 0.205409
729 1 0.157457 0.472025 0.419888
702 1 0.137042 0.234172 0.138324
1215 1 0.533683 0.374161 0.0815572
650 1 0.905195 0.442599 0.074481
359 1 0.100036 0.208036 0.431066
817 1 0.75534 0.264071 0.13739
1081 1 0.854373 0.419165 0.0257084
1157 1 0.193418 0.300717 0.11349
1574 1 0.959984 0.255737 0.201325
1905 1 0.916161 0.156258 0.0466602
497 1 0.435883 0.426372 0.386469
1151 1 0.314395 0.259745 0.244604
1038 1 0.58334 0.19009 0.182234
433 1 0.882886 0.0617154 0.103352
475 1 0.962498 0.098405 0.187574
665 1 0.33383 0.477269 0.0303365
1625 1 0.322717 0.14161 0.0731404
1671 1 0.638227 0.0347769 0.304499
1667 1 0.944006 0.471844 0.360927
1782 1 0.0232475 0.207367 0.0216983
1396 1 0.249468 0.230064 0.236132
1173 1 0.665401 0.266625 0.152905
339 1 0.31577 0.0631428 0.260058
171 1 0.141465 0.146355 0.0408295
726 1 0.861646 0.132948 0.0875844
770 1 0.879956 0.0706036 0.020905
119 1 0.228651 0.470712 0.481494
1176 1 0.167648 0.413302 0.351372
1384 1 0.391948 0.132608 0.117381
327 1 0.353618 0.20794 0.118011
354 1 0.331755 0.321658 0.283326
872 1 0.316971 0.335648 0.0830469
1335 1 0.717762 0.303295 0.0668544
685 1 0.0840658 0.268701 0.264805
619 1 0.973464 0.149656 0.302603
1814 1 0.57536 0.023159 0.224341
1267 1 0.538151 0.136284 0.318448
1780 1 0.670583 0.394307 0.24474
2 1 0.176961 0.251254 0.334829
1093 1 0.140222 0.310049 0.464667
360 1 0.352914 0.169412 0.274668
1393 1 0.0020395 0.46724 0.202967
2047 1 0.650308 0.43444 0.0211057
1084 1 0.732529 0.165778 0.11903
1752 1 0.544614 0.148511 0.0406266
49 1 0.226957 0.361199 0.189267
28 1 0.139303 0.0148996 0.0965244
1070 1 0.242039 0.340206 0.424297
1643 1 0.471862 0.446379 0.236199
1550 1 0.840574 0.476923 0.0717735
1243 1 0.9158 0.486685 0.216615
629 1 0.838185 0.486115 0.181671
1394 1 0.450108 0.379436 0.241798
246 1 0.325176 0.321164 0.44536
1225 1 0.900109 0.209844 0.448457
1594 1 0.911885 0.28298 0.454236
424 1 0.843903 0.391403 0.48901
714 1 0.354048 0.0780832 0.408375
1750 1 0.411879 0.475041 0.0687871
1034 1 0.10384 0.48712 0.0932247
1719 1 0.928386 0.309119 0.161832
1 1 0.994928 0.0263028 0.0404951
740 1 0.446432 0.0335838 0.0942732
271 1 0.713505 0.218642 0.183617
953 1 0.848034 0.381688 0.0999259
128 1 0.108072 0.135733 0.314966
1193 1 0.399004 0.247791 0.291712
1704 1 0.632312 0.168031 0.230116
529 1 0.145188 0.257792 0.400976
1031 1 0.137314 0.0624816 0.181588
1744 1 0.883824 0.259731 0.233408
397 1 0.692399 0.431375 0.0817121
1013 1 0.243124 0.0345018 0.217388
1986 1 0.97727 0.460244 0.0200901
382 1 0.236798 0.21539 0.31402
538 1 0.526208 0.0627665 0.0740507
160 1 0.489102 0.254661 0.280735
420 1 0.519074 0.224557 0.494906
1139 1 0.592531 0.0947854 0.050242
1595 1 0.888374 0.351443 0.194569
625 1 0.184971 0.190742 0.197075
931 1 0.37018 0.125641 0.343535
138 1 0.577564 0.3204 0.492199
460 1 0.768931 0.0813559 0.00873469
1553 1 0.69238 0.0953742 0.01399
1809 1 0.820397 0.410061 0.357482
1586 1 0.283977 0.17264 0.242195
1078 1 0.113997 0.416821 0.103847
1584 1 0.381905 0.396378 0.483946
1247 1 0.0623978 0.309868 0.202305
1249 1 0.277099 0.115862 0.29372
1535 1 0.162641 0.498419 0.489426
1459 1 0.781697 0.219848 0.210524
1953 1 0.171414 0.388835 0.277686
771 1 0.328894 0.402512 0.303292
459 1 0.48263 0.396184 0.177829
1681 1 0.266292 0.496863 0.163142
1213 1 0.6493 0.189203 0.16028
346 1 0.166695 0.293575 0.273702
1962 1 0.808286 0.318916 0.470056
1943 1 0.298641 0.120831 0.37095
431 1 0.212663 0.0681496 0.157322
1136 1 0.64176 0.0244771 0.0535964
1941 1 0.377317 0.147366 0.0295639
1359 1 0.65245 0.015239 0.433492
1222 1 0.0924674 0.444223 0.371913
1940 1 0.25263 0.180495 0.433339
1969 1 0.427278 0.120907 0.213009
1846 1 0.730766 0.0589377 0.0832471
1257 1 0.0998813 0.247942 0.0508828
1874 1 0.469677 0.198161 0.237248
1571 1 0.978343 0.00579697 0.418917
2031 1 0.980244 0.0115867 0.311531
261 1 0.450897 0.377751 0.494012
808 1 0.831861 0.191824 0.496125
1486 1 0.962209 0.37976 0.261325
348 1 0.7678 0.265844 0.363056
1168 1 0.837911 0.257408 0.178107
1383 1 0.283129 0.110493 0.44612
1554 1 0.52423 0.442922 0.0467112
1469 1 0.0995072 0.401663 0.433498
2027 1 0.669619 0.203219 0.288135
27 1 0.8919 0.36226 0.265232
882 1 0.825867 0.309317 0.361621
1098 1 0.352464 0.479917 0.298021
1338 1 0.272409 0.0133377 0.297702
167 1 0.738982 0.111366 0.341395
651 1 0.892535 0.198047 0.147946
1183 1 0.818042 0.405299 0.260615
1512 1 0.239864 0.166058 0.145845
2011 1 0.474074 0.166979 0.165944
924 1 0.722603 0.189073 0.356254
507 1 0.18775 0.138756 0.337327
1487 1 0.466247 0.434713 0.0921761
1138 1 0.804221 0.195036 0.339417
851 1 0.907719 0.18858 0.293262
833 1 0.930999 0.1523 0.236487
1427 1 0.0767965 0.262173 0.154172
452 1 0.263138 0.108913 0.216653
1354 1 0.451202 0.309435 0.309263
20 1 0.59825 0.438575 0.104466
398 1 0.362913 0.412262 0.0612797
140 1 0.806149 0.259639 0.264747
1421 1 0.0113331 0.0316543 0.191007
2029 1 0.117064 0.440249 0.279281
1997 1 0.41835 0.39552 0.126751
1400 1 0.77234 0.15658 0.0438879
681 1 0.728874 0.221138 0.0330351
1569 1 0.216666 0.303784 0.3695
34 1 0.734841 0.367234 0.0229197
854 1 0.62861 0.338029 0.111514
312 1 0.780218 0.125959 0.498444
102 1 0.976444 0.1884 0.36726
1077 1 0.281312 0.483551 0.0890952
471 1 0.222731 0.423624 0.103859
2035 1 0.766529 0.307873 0.3038
868 1 0.181487 0.0596957 0.350766
1509 1 0.633204 0.417714 0.468197
630 1 0.322015 0.495466 0.452675
74 1 0.0907893 0.17687 0.0832568
473 1 0.485047 0.0453786 0.374799
96 1 0.531663 0.222956 0.0670193
1402 1 0.6728 0.0541068 0.206061
826 1 0.874751 0.304097 0.0463529
1733 1 0.170282 0.0727792 0.431054
1017 1 0.739813 0.0597365 0.3998
1001 1 0.293258 0.0167112 0.159592
266 1 0.0339255 0.145984 0.201538
913 1 0.401062 0.0946536 0.280079
647 1 0.6796 0.471258 0.226484
1837 1 0.914324 0.2922 0.30907
445 1 0.900862 0.124901 0.326087
730 1 0.111086 0.174468 0.165774
644 1 0.0512528 0.194648 0.28629
1172 1 0.338649 0.0339119 0.326435
634 1 0.94575 0.347933 0.443656
646 1 0.633443 0.057799 0.375825
1849 1 0.695331 0.130337 0.238479
1514 1 0.844611 0.208489 0.397
1632 1 0.840169 0.197775 0.245453
609 1 0.232029 0.374441 0.358618
1108 1 0.437739 0.153134 0.292198
1089 1 0.776233 0.336182 0.153528
513 1 0.0672534 0.369543 0.30329
1482 1 0.376113 0.277313 0.38903
2010 1 0.740364 0.43499 0.248941
1738 1 0.583926 0.206692 0.108242
912 1 0.721074 0.419893 0.153589
152 1 0.924905 0.0759403 0.424981
340 1 0.239755 0.379414 0.26751
1726 1 0.42086 0.181891 0.355474
1422 1 0.435543 0.110711 0.0544884
1577 1 0.00643349 0.139816 0.126091
1783 1 0.19751 0.203565 0.390385
982 1 0.480241 0.439022 0.440365
1214 1 0.521055 0.330757 0.141813
754 1 0.636795 0.389073 0.315423
1525 1 0.888664 0.481054 0.132638
1952 1 0.30011 0.413172 0.136295
907 1 0.870102 0.102449 0.265385
688 1 0.965741 0.469819 0.466848
67 1 0.89268 0.0965514 0.196177
1511 1 0.607945 0.442243 0.264194
1412 1 0.74431 0.285214 0.210415
1892 1 0.0230549 0.38461 0.23326
253 1 0.571562 0.0257838 0.144985
243 1 0.476394 0.22713 0.0225063
1325 1 0.11409 0.0516273 0.330709
1442 1 0.95518 0.0774435 0.262374
1776 1 0.93779 0.280026 0.0268599
1561 1 0.921026 0.380105 0.0391074
226 1 0.470812 0.0376462 0.0258875
73 1 0.782808 0.0581103 0.318889
280 1 0.48178 0.0960754 0.49109
1420 1 0.544719 0.082646 0.19147
493 1 0.483638 0.473327 0.366148
1055 1 0.524126 0.413456 0.376767
844 1 0.577325 0.376958 0.137717
25 1 0.857962 0.310342 0.131069
1470 1 0.757525 0.104257 0.252638
41 1 0.0655497 0.0840582 0.195076
224 1 0.237188 0.238723 0.149818
147 1 0.600744 0.192055 0.0340001
828 1 0.555181 0.0676347 0.451053
39 1 0.622749 0.249576 0.21571
796 1 0.700459 0.330881 0.129415
952 1 0.596322 0.260082 0.345455
132 1 0.302111 0.297528 0.385167
1626 1 0.0938285 0.206026 0.353938
1216 1 0.52949 0.277988 0.205822
857 1 0.93788 0.267748 0.105046
955 1 0.0721259 0.48011 0.441098
954 1 0.857543 0.0739987 0.354152
2000 1 0.143706 0.327138 0.33794
326 1 0.359387 0.385502 0.416979
1990 1 0.422382 0.0357787 0.429834
1130 1 0.525663 0.156903 0.212569
1310 1 0.710178 0.30442 0.384076
164 1 0.945198 0.368473 0.113579
361 1 0.477999 0.170735 0.48233
1224 1 0.499287 0.350113 0.435843
1666 1 0.73955 0.408219 0.422668
977 1 0.686869 0.326382 0.20723
736 1 0.820712 0.112049 0.429736
244 1 0.992332 0.305675 0.483194
308 1 0.104896 0.112972 0.391197
1828 1 0.385792 0.480628 0.405614
1184 1 0.686446 0.26069 0.238532
557 1 0.554759 0.0771687 0.377383
1612 1 0.952351 0.359103 0.330156
300 1 0.870466 0.33485 0.449467
1142 1 0.248998 0.254209 0.449215
1158 1 0.699373 0.34584 0.310286
1049 1 0.719238 0.0210361 0.457258
1792 1 0.80928 0.376507 0.431779
1568 1 0.148379 0.151092 0.43686
1813 1 0.375555 0.352441 0.334419
863 1 0.414326 0.31541 0.433263
552 1 0.603075 0.43133 0.379181
1453 1 0.758021 0.367445 0.232869
1823 1 0.0253549 0.262986 0.067929
698 1 0.886793 0.371017 0.375077
390 1 0.440364 0.283658 0.0594028
757 1 0.380671 0.281495 0.185316
777 1 0.660092 0.38317 0.172745
1429 1 0.294334 0.416975 0.479976
1217 1 0.187737 0.106815 0.209986
275 1 0.894291 0.422485 0.20311
1301 1 0.380531 0.0637281 0.06723
511 1 0.585614 0.266897 0.0766533
577 1 0.971658 0.253773 0.405462
21 1 0.517177 0.428032 0.300994
849 1 0.0908978 0.0536803 0.430083
1483 1 0.764884 0.00674898 0.0264386
1718 1 0.708121 0.0192574 0.141083
1644 1 0.832885 0.0714696 0.162632
1753 1 0.807217 0.0462224 0.220844
368 1 0.964205 0.23853 0.270824
1539 1 0.117295 0.337267 0.249199
1122 1 0.394194 0.332242 0.24663
2019 1 0.773897 0.234493 0.455494
1245 1 0.918184 0.00266095 0.272136
1265 1 0.339376 0.178269 0.476599
660 1 0.915844 0.426009 0.307896
1811 1 0.34808 0.00626758 0.0906971
1132 1 0.960341 0.026929 0.119994
318 1 0.329275 0.253736 0.479854
1308 1 0.810313 0.139852 0.215705
1560 1 0.991077 0.436329 0.103831
1842 1 0.0344586 0.213064 0.110361
1239 1 0.651157 0.131035 0.294421
1960 1 0.453833 0.184561 0.0954391
1772 1 0.0669117 0.294454 0.41848
2004 1 0.175907 0.0143272 0.269252
986 1 0.335107 0.269651 0.0107542
401 1 0.717822 0.248467 0.30986
1900 1 0.546425 0.208076 0.352985
1290 1 0.0108379 0.452057 0.342362
850 1 0.237761 0.438068 0.417506
1964 1 0.39482 0.232119 0.0354662
1668 1 0.0984002 0.151746 0.231192
1546 1 0.495108 0.19162 0.306835
743 1 0.751424 0.371999 0.358941
801 1 0.0731121 0.290737 0.332412
107 1 0.886619 0.143894 0.396146
51 1 0.574839 0.269326 0.148707
1433 1 0.453746 0.324088 0.188165
1882 1 0.547305 0.291387 0.269597
485 1 0.951328 0.237851 0.500858
287 1 0.076799 0.361033 0.380151
1322 1 0.340403 0.103495 0.497659
404 1 0.711112 0.462792 0.470854
563 1 0.865069 0.0564026 0.459686
979 1 0.00452073 0.326907 0.118644
1998 1 0.827951 0.335871 0.239911
328 1 0.182059 0.22472 0.0698262
606 1 0.988446 0.335063 0.0446158
1436 1 0.243815 0.36271 0.0676979
263 1 0.558903 0.0647136 0.283897
256 1 0.65683 0.469277 0.151502
1371 1 0.519251 0.301489 0.0551638
1936 1 0.694826 0.454967 0.306826
1653 1 0.810846 0.467047 0.417658
192 1 0.156584 0.105361 0.0980252
189 1 0.0251467 0.148462 0.421176
1966 1 0.984442 0.260314 0.335304
974 1 0.41994 0.106341 0.406352
1957 1 0.28696 0.419632 0.0557608
1350 1 0.0861114 0.133942 0.475552
2007 1 0.288882 0.113664 0.128595
919 1 0.0659615 0.353839 0.0306967
517 1 0.00591022 0.341981 0.408312
1043 1 0.93399 0.123361 0.114217
1428 1 0.166034 -0.00367413 0.194813
369 1 0.949846 0.0808275 0.0529572
585 1 0.0132655 0.231311 0.458207
290 1 0.57416 0.200946 0.252833
2021 1 0.664907 0.231049 0.354836
1320 1 0.865581 0.244064 0.326329
1578 1 0.47783 0.280065 0.461527
417 1 0.683993 0.122791 0.157028
1248 1 0.435998 0.25445 0.35871
1775 1 0.652344 0.188614 0.417586
1302 1 0.199334 0.457884 0.27346
1345 1 0.528822 0.334565 0.342409
1616 1 0.725434 0.300648 0.481272
500 1 0.731194 0.0223756 0.216372
1374 1 0.202653 0.50049 0.108931
105 1 0.14974 0.453599 0.0448852
994 1 0.117946 0.243156 0.491676
834 1 0.928208 0.308199 0.386293
1413 1 0.560624 0.414836 0.453872
136 1 0.573755 0.0366195 0.0125523
1796 1 0.386721 0.0350195 0.229643
690 1 0.483919 0.147779 0.385226
1543 1 0.399124 0.350084 0.0688226
1530 1 0.366891 0.048824 0.164233
1368 1 0.0436288 0.0880356 0.316659
542 1 0.895242 0.456365 0.431316
1155 1 0.686057 0.368714 0.44767
1580 1 0.800278 0.0508369 0.0737533
935 1 0.351506 0.153098 0.406764
1838 1 0.793578 0.124898 0.105149
917 1 0.760401 0.168949 0.281217
820 1 0.673596 0.37965 0.379761
379 1 0.0410264 0.155748 0.344335
351 1 0.842602 0.485605 0.47867
700 1 0.55575 0.369976 0.208433
804 1 0.428201 0.39854 0.321026
142 1 0.0536789 0.368489 0.157472
800 1 0.61721 0.0944643 0.238931
1945 1 0.098079 0.404023 0.214054
1895 1 0.610173 0.331875 0.37252
1636 1 0.311178 0.251233 0.324795
1457 1 0.266199 0.445153 0.295824
877 1 0.598047 0.484065 0.481644
1494 1 0.0242893 0.223559 0.223348
1268 1 0.212386 0.150788 0.27247
395 1 0.770813 0.462082 0.315221
1778 1 0.207887 0.00487395 0.114351
374 1 0.608369 0.336212 0.2467
1713 1 0.753745 0.0698722 0.166958
1229 1 0.995626 0.0831653 0.435347
1282 1 0.815214 0.120092 0.3197
362 1 0.629304 0.266042 0.418459
1404 1 0.218419 0.0706883 0.287515
670 1 0.258504 0.0608845 0.00626024
1036 1 0.414114 0.027882 0.35609
927 1 0.315066 0.221137 0.411272
1933 1 0.561403 0.475984 0.420443
176 1 0.258231 0.320479 0.305012
624 1 0.318357 0.471121 0.233736
1906 1 0.161329 0.0370786 0.502366
1861 1 0.555932 0.471651 0.347614
1818 1 0.242399 0.293626 0.00909882
1186 1 0.568379 0.38663 0.275533
329 1 0.134137 0.0837528 0.26589
1028 1 0.0553501 0.435409 0.144694
1749 1 0.617383 0.349535 0.443608
1033 1 0.31279 0.479617 0.358654
267 1 0.0892268 0.0312526 0.241405
1425 1 0.61589 0.099087 0.476461
63 1 0.69952 0.0314619 0.339291
784 1 0.674866 0.132075 0.361088
1831 1 0.771329 0.36157 0.0863258
1596 1 0.80676 0.330792 0.0327845
1724 1 0.295449 0.0402013 0.397583
1401 1 0.287838 0.14339 0.00482842
350 1 0.512778 0.475696 0.499536
419 1 0.337505 0.105973 0.876233
1199 1 0.888207 0.123583 0.767727
116 1 0.555946 0.0236004 0.665833
649 1 0.867795 0.39956 0.95007
1633 1 0.480553 0.436244 0.554074
746 1 0.908127 0.119593 0.907127
1880 1 0.57662 0.0153019 0.735226
169 1 0.666007 0.0140046 0.703381
1939 1 0.81279 0.270674 0.994576
1618 1 0.226642 0.124084 0.558862
1149 1 0.808864 0.163321 0.557947
524 1 0.609865 0.110796 0.706276
1774 1 0.266424 0.359555 0.679055
846 1 0.930989 0.429661 0.59273
1948 1 0.592174 0.415125 0.589238
1232 1 0.711542 0.426319 0.678869
1403 1 0.0543433 0.0590494 0.691698
929 1 0.401638 0.0991672 0.827675
175 1 0.0749718 0.287365 0.58044
94 1 0.113258 0.350644 0.532548
544 1 0.648863 0.279452 0.508693
311 1 0.275445 0.194015 0.650712
237 1 0.0203655 0.243677 0.545892
659 1 0.497206 0.236597 0.620015
1762 1 0.741327 0.36496 0.643149
996 1 0.322993 0.350836 0.92126
1562 1 0.372731 0.363564 1.00108
739 1 0.478893 0.168624 0.694076
279 1 0.860949 0.227563 0.701655
1621 1 0.984383 0.337133 0.680223
1630 1 0.687024 0.389143 0.791206
399 1 0.95285 0.104023 0.509673
1196 1 0.0604906 0.194506 0.505493
1975 1 0.385381 0.500326 0.986573
173 1 0.218624 0.405703 0.651877
615 1 0.679358 0.349417 0.977949
84 1 0.20597 0.434078 0.577151
1955 1 0.656498 0.0965409 0.844325
945 1 0.329851 0.141948 0.951347
446 1 0.341389 0.362537 0.66559
233 1 0.0431136 0.298006 0.651564
358 1 0.408232 0.00679714 0.504327
2013 1 0.501003 0.0937704 0.561596
1794 1 0.436485 0.0583522 0.603108
515 1 0.20704 0.323934 0.650745
635 1 0.774334 0.0461292 0.729068
787 1 0.0480968 0.360181 0.585171
1836 1 0.0291095 0.221385 0.813718
325 1 0.449089 0.488884 0.64926
534 1 0.620921 0.0569403 0.655805
776 1 0.163042 0.143998 0.522484
904 1 0.954757 0.1118 0.722624
1500 1 0.30951 0.287522 0.539234
104 1 0.0801524 0.0461134 0.895203
1032 1 0.0858595 0.115457 0.657038
1260 1 0.36227 0.120789 0.682844
1627 1 0.737634 0.156583 0.543839
2038 1 0.823131 0.040617 0.551601
251 1 0.631555 0.441298 0.899489
910 1 0.528243 0.27546 0.566683
748 1 0.869167 0.175882 0.962922
1165 1 0.58264 0.0731976 0.841298
1318 1 0.834444 0.160248 0.699112
429 1 0.949245 0.281606 0.656084
2024 1 0.0361959 0.370042 0.512535
124 1 0.798187 0.379277 0.932277
178 1 0.219501 0.393418 0.52411
1419 1 0.641626 0.416499 0.709189
1817 1 0.908967 0.228007 0.56468
891 1 0.516267 0.378887 0.678085
1291 1 0.791697 0.252949 0.649031
35 1 0.293375 0.046899 0.51672
588 1 0.750092 0.0769851 0.539928
1201 1 0.249335 0.258629 0.556348
499 1 0.161521 0.279815 0.56945
710 1 0.56018 0.2829 0.665463
14 1 0.915441 0.180371 0.734814
436 1 0.223001 0.255394 0.723663
1768 1 0.259892 0.34614 0.599554
1236 1 0.574618 0.328242 0.615575
769 1 0.875402 0.0202852 0.643757
1294 1 0.0224864 0.277433 0.738718
47 1 0.299576 0.111824 0.644294
1488 1 0.932753 0.195491 0.628276
1166 1 0.108416 0.466033 0.941243
1756 1 0.0125272 0.0862216 0.911724
1495 1 0.792776 0.21153 0.922975
870 1 0.949654 0.318765 0.760548
1879 1 0.264135 0.132057 0.861639
2017 1 0.970321 0.163069 0.780509
76 1 0.838999 0.347146 0.649572
478 1 0.961288 0.173943 0.900545
1701 1 0.0763046 0.0165665 0.975362
305 1 0.989269 0.148992 0.970852
38 1 0.963314 0.226077 0.709471
1329 1 0.0815102 0.318189 0.948501
1009 1 0.180542 0.431968 0.752527
1810 1 0.104132 0.440565 0.786106
1606 1 0.387166 0.119847 0.59241
560 1 0.366043 0.465013 0.855384
1390 1 0.493916 0.40199 0.760432
1591 1 0.528377 0.461997 0.807321
1096 1 0.979592 0.149874 0.665151
1722 1 0.183046 0.0686297 0.569079
82 1 0.185353 0.251316 0.654181
741 1 0.0728424 0.445094 0.568912
1226 1 0.147486 0.0231257 0.959265
1382 1 0.264191 0.0131172 0.735856
1951 1 0.673866 0.259584 0.68719
1451 1 0.271743 0.229233 0.989696
1947 1 0.854842 0.0977017 0.588572
526 1 0.107538 0.182629 0.593487
911 1 0.200679 0.152493 0.676774
54 1 0.67676 0.0923642 0.927774
1607 1 0.445601 0.0762979 0.763664
658 1 0.382511 0.292954 0.972369
1672 1 0.578849 0.234279 0.54055
1137 1 0.0223863 0.343616 0.974462
939 1 0.755798 0.187198 0.830739
1085 1 0.0330779 0.464189 0.850759
1227 1 0.792468 0.326452 0.606094
1472 1 0.0714764 0.216404 0.741964
812 1 0.275298 0.0311628 0.809648
1170 1 0.372556 0.223746 0.849243
1238 1 0.594425 0.382586 0.661208
897 1 0.613359 0.287394 0.569113
1679 1 0.908122 0.256194 0.753551
174 1 0.316942 0.2471 0.734999
620 1 0.634691 0.380252 0.534503
200 1 0.744038 0.456351 0.606869
864 1 0.367417 0.0669422 0.752092
835 1 0.902496 0.281837 0.826356
1372 1 0.224078 0.280615 0.873245
1563 1 0.332075 0.261792 0.604334
110 1 0.0641201 0.0665483 0.764332
772 1 0.211978 0.138977 1.00015
1788 1 0.116398 0.469469 0.721548
249 1 0.112875 0.341117 0.641182
1246 1 0.0431489 0.0104873 0.644748
269 1 0.62432 0.299344 0.716626
933 1 0.701267 0.31777 0.555671
845 1 0.65515 0.233771 0.980796
536 1 0.137222 0.464225 0.548585
1967 1 0.756575 0.118116 0.797732
858 1 0.867577 0.10361 0.51922
1311 1 0.847143 0.263151 0.924682
371 1 0.200733 0.0874905 0.875833
428 1 0.835971 0.0551756 0.755779
33 1 0.575672 0.185559 0.933806
1790 1 0.0696568 0.400675 0.978331
782 1 0.84104 0.258818 0.570132
957 1 0.913248 0.106225 0.639547
201 1 0.629164 0.0761294 0.981166
1466 1 0.695268 0.194154 0.747639
1919 1 0.109355 0.108836 0.832633
855 1 0.38806 0.319593 0.642384
482 1 0.461303 0.0324805 0.897552
613 1 0.655352 0.253292 0.757315
1675 1 0.587941 0.166812 0.84578
498 1 0.0345891 0.269744 0.932345
1516 1 0.265349 0.103984 0.931087
1803 1 0.588154 0.0192597 0.504353
1373 1 0.277575 0.0592051 0.680353
1634 1 0.655138 0.016895 0.610323
1935 1 0.498876 0.159355 0.619964
1789 1 0.728463 0.286771 0.776812
764 1 0.461271 0.239049 0.797381
699 1 0.542659 0.389714 0.83201
1463 1 0.561632 0.166476 0.51836
1552 1 0.648815 0.208385 0.526617
1253 1 0.841991 0.0144766 0.99934
633 1 0.0844473 0.274157 0.787494
232 1 0.194222 0.121836 0.745199
188 1 0.517317 0.330311 0.872765
859 1 0.751111 0.380346 0.567975
640 1 0.647879 0.447567 0.609639
562 1 0.775799 0.18528 0.737225
1507 1 0.752754 0.27274 0.554572
2009 1 0.255277 0.137181 0.782808
1167 1 0.481128 0.30861 0.713244
57 1 0.286274 0.47882 0.909114
1715 1 0.790039 0.154027 0.630752
1677 1 0.118179 0.309863 0.872055
1603 1 0.48287 0.0108702 0.805522
978 1 0.243879 0.318517 0.814205
357 1 0.433367 0.368694 0.729116
836 1 0.947245 0.443107 0.90464
587 1 0.78276 0.421178 0.513178
1179 1 0.861931 0.214227 0.791164
1461 1 0.202786 0.048306 0.704878
550 1 0.459669 0.388957 0.629256
2037 1 0.613831 0.497686 0.567673
2008 1 0.919669 0.355235 0.706255
117 1 0.550832 0.436492 0.728209
1340 1 0.297296 0.452602 0.822028
415 1 0.374343 0.390405 0.766386
2014 1 0.838901 0.456452 0.921949
1929 1 0.0502713 0.437705 0.714212
1002 1 0.944902 0.0630841 0.573248
97 1 0.566723 0.109936 0.574565
763 1 0.469061 0.171079 0.775751
123 1 0.332665 0.424664 0.902666
564 1 0.205243 0.466575 0.935176
1266 1 0.318967 0.0698238 0.974356
838 1 0.034518 0.0907832 0.986358
352 1 0.520612 0.151329 0.889419
1896 1 0.881686 0.245387 0.993419
1545 1 0.314161 0.149869 0.721708
1100 1 0.28047 0.462046 0.547699
900 1 0.697878 0.497485 0.56466
2016 1 0.970278 0.254124 0.791129
1378 1 0.389608 0.160786 0.895896
1623 1 0.509871 0.26254 0.96513
1863 1 0.565077 0.228803 0.612326
1076 1 0.641629 0.211218 0.606521
343 1 0.817529 0.234793 0.845379
1242 1 0.915047 0.0672259 0.806361
1159 1 0.381634 0.301451 0.855056
394 1 0.754906 0.0449623 0.883441
504 1 0.534007 0.251993 0.749668
890 1 0.178946 0.206324 0.558715
2034 1 0.121341 0.0382889 0.72195
946 1 0.140876 0.244705 0.733373
1950 1 0.389618 0.16673 0.802851
1023 1 0.665973 0.315232 0.791296
786 1 0.780574 0.0739921 0.602319
1747 1 0.924835 0.170088 0.50714
759 1 0.059689 0.344468 0.840145
1855 1 0.176482 0.12113 0.817036
1054 1 0.351891 0.202243 0.646783
1492 1 0.575535 0.33436 0.757912
1039 1 0.876509 0.360439 0.785466
1426 1 0.309848 0.297886 0.869368
1517 1 0.158239 0.453031 0.663972
1597 1 0.410191 0.237913 0.710477
1237 1 0.228564 0.0171223 0.531525
1728 1 0.107823 0.0797074 0.528509
1357 1 0.459703 0.311484 0.975206
1481 1 0.666674 0.454688 0.808423
592 1 0.738186 0.211576 0.595
1029 1 0.841806 0.38045 0.725439
502 1 0.788588 0.43798 0.661802
376 1 0.164373 0.40052 0.823502
1673 1 0.334973 0.332108 0.584235
144 1 0.416945 0.467486 0.574938
1995 1 0.445205 0.473864 0.918502
1536 1 0.460504 0.479397 0.844628
179 1 0.0926605 0.438571 0.637706
992 1 0.606821 0.154359 0.642542
355 1 0.979913 0.0348268 0.679679
1921 1 0.929345 0.48619 0.64378
1944 1 0.481841 0.219692 0.915862
501 1 0.203765 -0.00027087 0.869262
514 1 0.00179551 0.0946886 0.623196
1476 1 0.119319 0.159381 0.899869
1455 1 0.652017 0.195306 0.894063
720 1 0.620378 0.162805 0.749371
1609 1 0.538024 0.171547 0.752537
947 1 0.0413663 0.0818079 0.829411
206 1 0.011766 0.475943 0.929244
989 1 0.523572 0.303093 0.806814
520 1 0.41224 0.167776 0.733785
93 1 0.616842 0.481346 0.675927
1015 1 0.214762 0.0645728 0.800017
2041 1 0.157899 0.0439945 0.636114
166 1 0.419561 0.0870937 0.537304
2042 1 0.659031 0.255069 0.839841
217 1 0.698198 0.277837 0.624411
962 1 0.80895 0.0573462 0.666162
293 1 0.29338 0.0452554 0.883213
1156 1 0.495028 0.208715 0.846251
876 1 0.335783 0.429311 0.685944
1391 1 0.799113 0.316226 0.876991
1544 1 0.989767 0.441888 0.543803
766 1 0.183221 0.341625 0.717911
75 1 0.478375 0.0804937 0.697403
469 1 0.397388 0.309414 0.711853
439 1 0.654832 0.492898 0.744239
1424 1 0.609516 0.233987 0.682253
111 1 0.902973 0.0615627 0.69912
843 1 0.0881675 0.297841 0.704922
1263 1 0.116802 0.264227 0.981792
99 1 0.0740622 0.252853 0.867818
100 1 0.929401 0.482608 0.799564
937 1 0.560954 0.425018 0.945496
225 1 0.594138 0.303771 0.828354
1853 1 0.486994 0.175304 0.555096
1565 1 0.193592 0.350658 0.872243
320 1 0.110805 0.14224 0.765981
1336 1 0.390453 0.410636 0.948959
481 1 0.682667 0.0927879 0.692208
1187 1 0.859024 0.43069 0.773392
365 1 0.879706 0.298828 0.688133
775 1 0.855421 0.0102982 0.864489
1020 1 0.964974 0.329916 0.827801
1740 1 0.239378 0.40286 0.776266
435 1 0.314456 0.232864 0.892017
1441 1 0.863482 0.17048 0.610635
1600 1 0.917299 0.439029 0.996675
1650 1 0.150283 0.147743 0.963177
1204 1 0.927877 0.412448 0.750161
3 1 0.707688 0.261061 0.909882
999 1 0.633191 0.484548 0.960539
1367 1 0.0446086 0.350745 0.771869
240 1 0.549481 0.115112 0.667726
474 1 0.0224653 0.404201 0.891289
991 1 0.250192 0.344082 0.917042
98 1 0.575353 0.109595 0.938304
309 1 0.415264 0.461292 0.754729
198 1 0.81151 0.155688 0.79132
338 1 0.0471043 0.164454 0.690476
81 1 0.145916 0.120247 0.605483
765 1 0.433534 0.188945 0.972555
789 1 0.967152 0.47518 0.721662
779 1 0.917231 0.037337 0.938807
409 1 0.149349 0.27748 0.821492
543 1 0.647047 0.152687 0.954232
1097 1 0.0530008 0.057344 0.590281
1787 1 0.0894896 0.227507 0.667299
689 1 0.200354 0.207267 0.792339
122 1 0.681252 0.342308 0.854536
1309 1 0.749484 0.200678 0.667972
1133 1 0.929063 0.211646 0.831833
1891 1 0.257317 0.447293 0.696939
794 1 0.930304 0.10888 0.981537
1443 1 0.78899 0.497787 0.814633
713 1 0.0146409 0.320234 0.889088
1839 1 0.906415 0.344459 0.630301
277 1 0.233127 0.0941123 0.636691
894 1 0.554336 0.252906 0.868597
1467 1 0.216714 0.323938 0.540519
566 1 0.012347 0.44557 0.624211
1306 1 0.817348 0.279444 0.728342
1854 1 0.753912 0.115014 0.70011
576 1 0.69721 0.41572 0.524348
1019 1 0.864422 0.339543 0.891668
135 1 0.340338 0.474272 0.737306
317 1 0.444921 0.277127 0.873507
521 1 0.172388 0.483462 0.803284
591 1 0.153164 0.100986 0.686462
1785 1 0.395626 0.297133 0.525443
1725 1 0.697623 0.34825 0.70096
1819 1 0.793106 0.443795 0.871902
386 1 0.385454 0.0356352 0.914638
165 1 0.135495 0.348173 0.780857
1148 1 0.747175 0.0199554 0.956162
593 1 0.26143 0.191935 0.927044
1649 1 0.726479 0.418568 0.964071
1513 1 0.306147 0.278573 0.94559
664 1 0.987699 0.0383686 0.956157
908 1 0.616645 0.0542886 0.909507
1920 1 0.737432 0.0018917 0.578127
1795 1 0.535861 0.120546 0.812644
923 1 0.530883 0.459904 0.642801
1040 1 0.891098 0.19808 0.890783
580 1 0.896489 0.474365 0.714236
1050 1 0.129115 0.21151 0.837278
1639 1 0.0356464 0.13034 0.767855
751 1 0.207086 0.0628399 0.959372
1910 1 0.782979 0.24006 0.778569
43 1 0.809289 0.0700914 0.8189
948 1 0.79984 0.154824 0.968622
444 1 0.121865 0.395409 0.710465
208 1 0.751328 0.270536 0.843733
2005 1 0.715739 0.118443 0.875068
1972 1 0.993696 0.073243 0.772905
503 1 0.599031 0.237349 0.795411
1388 1 0.374014 0.485959 0.656582
1925 1 0.0626937 0.157975 0.846765
621 1 0.916007 0.379924 0.864689
1907 1 0.290506 0.375932 0.836902
334 1 0.442478 0.418234 0.805763
1697 1 0.167969 0.413034 0.893234
441 1 0.95224 0.208618 0.971086
805 1 0.717091 0.444278 0.888725
1056 1 0.666219 0.350994 0.608005
807 1 0.475682 0.356731 0.816734
106 1 0.825921 0.387209 0.835418
516 1 0.749418 0.374525 0.844185
1759 1 0.9316 0.417482 0.670538
276 1 0.933 0.287588 0.928397
1447 1 0.872404 0.316697 0.970595
1439 1 0.774055 0.414098 0.760814
1332 1 0.53487 0.463035 0.881209
1773 1 0.434776 0.329104 0.590879