LAMMPS (15 Sep 2022)
OMP_NUM_THREADS environment is not set. Defaulting to 1 thread. (src/comm.cpp:98)
  using 1 OpenMP thread(s) per MPI task
# 2d WCA system, random initial configuration

#variable density equal 1.4
variable initial_temperature equal 3.0
variable final_temperature equal 0.1
variable dt equal 0.005
variable tau equal 100*${dt}
variable tau equal 100*0.005
variable thermo_time equal 50000*${dt}
variable thermo_time equal 50000*0.005
variable equil_steps equal 50000
variable run_steps equal 100000

units           lj
atom_style      atomic
dimension       3

lattice         fcc ${density}
lattice         fcc 1.4
Lattice spacing in x,y,z = 1.4189834 1.4189834 1.4189834
region          box block 0 8 0 8 0 8
# number of atom types
create_box      1 box
Created orthogonal box = (0 0 0) to (11.351867 11.351867 11.351867)
  1 by 2 by 2 MPI processor grid
create_atoms    1 box
Created 2048 atoms
  using lattice units in orthogonal box = (0 0 0) to (11.351867 11.351867 11.351867)
  create_atoms CPU = 0.010 seconds
mass 1 1.0

velocity all create ${initial_temperature} 12345
velocity all create 3 12345

pair_style      lj/cut 1.0
#type_1 type_2 epsilon sigma cutoff
pair_coeff      1 1 10.0 0.89089871814 1.0
pair_modify shift yes

timestep ${dt}
timestep 0.005
thermo ${thermo_time}
thermo 250

fix 1 all nvt temp ${initial_temperature} ${initial_temperature} ${tau}
fix 1 all nvt temp 3 ${initial_temperature} ${tau}
fix 1 all nvt temp 3 3 ${tau}
fix 1 all nvt temp 3 3 0.5
run ${equil_steps}
run 50000
Generated 0 of 0 mixed pair_coeff terms from geometric mixing rule
Neighbor list info ...
  update: every = 1 steps, delay = 0 steps, check = yes
  max neighbors/atom: 2000, page size: 100000
  master list distance cutoff = 1.3
  ghost atom cutoff = 1.3
  binsize = 0.65, bins = 18 18 18
  1 neighbor lists, perpetual/occasional/extra = 1 0 0
  (1) pair lj/cut, perpetual
      attributes: half, newton on
      pair build: half/bin/atomonly/newton
      stencil: half/bin/3d
      bin: standard
Per MPI rank memory allocation (min/avg/max) = 3.098 | 3.098 | 3.098 Mbytes
   Step          Temp          E_pair         E_mol          TotEng         Press     
         0   3              0              0              4.4978027      4.1979492    
       250   2.1372916      2.6774703      0              5.8818423      57.364633    
       500   2.8585411      3.4492626      0              7.7349806      67.790001    
       750   3.0948591      3.8639127      0              8.5039346      73.440674    
      1000   2.8652633      3.5565716      0              7.852368       69.460573    
      1250   3.0794939      3.7418117      0              8.358797       71.92179     
      1500   3.0082923      3.5269636      0              8.0371988      69.107664    
      1750   3.0432382      3.5913221      0              8.1539505      70.337943    
      2000   3.0726832      3.6116428      0              8.2184171      70.379645    
      2250   2.9380391      3.6062928      0              8.0111995      70.270589    
      2500   3.1072525      3.6487043      0              8.3073072      70.989266    
      2750   2.9412883      3.5856064      0              7.9953846      70.164778    
      3000   2.9335473      3.8638251      0              8.2619975      73.27069     
      3250   3.0376407      3.5449555      0              8.0991917      69.658905    
      3500   2.9766921      3.6652366      0              8.1280946      70.817785    
      3750   2.9994112      3.7275345      0              8.2244544      71.602909    
      4000   2.899882       3.6835098      0              8.0312089      71.186937    
      4250   3.0201434      3.7518203      0              8.2798234      71.897272    
      4500   2.9343897      3.5902749      0              7.9897102      70.071364    
      4750   3.0563405      3.6010993      0              8.1833714      70.280876    
      5000   2.9390344      3.5944695      0              8.0008685      69.96577     
      5250   2.9267475      3.7138094      0              8.101787       71.5594      
      5500   3.0126259      3.6822261      0              8.1989585      71.475219    
      5750   2.9502233      3.5337779      0              7.9569521      69.191811    
      6000   3.0071039      3.6965848      0              8.2050382      71.254684    
      6250   2.9793607      3.5365194      0              8.0033783      69.3098      
      6500   3.0183182      3.6428025      0              8.1680692      71.097579    
      6750   3.040966       3.5718624      0              8.1310842      70.086045    
      7000   3.0620319      3.5551576      0              8.1459627      69.639434    
      7250   2.9916475      3.6588557      0              8.1441359      70.641425    
      7500   3.0458877      3.5783659      0              8.1449665      69.707832    
      7750   3.0823827      3.6282275      0              8.2495439      70.479455    
      8000   2.9605535      3.6498818      0              8.0885437      70.661895    
      8250   3.0694949      3.7749686      0              8.3769629      72.245381    
      8500   2.991099       3.6332728      0              8.1177306      70.709889    
      8750   3.0315149      3.7106068      0              8.2556589      71.627887    
      9000   2.9318256      3.7430351      0              8.1386261      71.315009    
      9250   3.0099951      3.6386873      0              8.1514755      70.490699    
      9500   3.0859468      3.741883       0              8.368543       72.022265    
      9750   2.9619494      3.6317739      0              8.0725286      70.885807    
     10000   3.0764921      3.7221138      0              8.3345987      71.515908    
     10250   2.9702025      3.5654884      0              8.0186167      69.677896    
     10500   3.0169765      3.7500584      0              8.2733134      71.970031    
     10750   2.9226248      3.5618158      0              7.9436123      70.057543    
     11000   3.0357999      3.6644951      0              8.2159715      71.099137    
     11250   2.9361183      3.590432       0              7.992459       70.066627    
     11500   2.9746098      3.6570874      0              8.1168235      71.268355    
     11750   3.0112561      3.6582071      0              8.1728858      71.226175    
     12000   2.943458       3.5510029      0              7.964034       69.357856    
     12250   3.0510634      3.6348363      0              8.2091968      70.932241    
     12500   2.8421483      3.6718612      0              7.933002       70.938324    
     12750   3.0014799      3.6834895      0              8.183511       71.124793    
     13000   2.9838795      3.633814       0              8.1074478      70.563945    
     13250   3.0787001      3.5137871      0              8.1295824      69.54686     
     13500   3.0343752      3.6257311      0              8.1750715      70.235884    
     13750   3.0015105      3.5867651      0              8.0868324      69.81608     
     14000   3.0684819      3.5721788      0              8.1726542      70.114278    
     14250   3.0592056      3.5719415      0              8.1585093      69.929517    
     14500   3.0093392      3.5467643      0              8.058569       69.662242    
     14750   2.9939114      3.7869072      0              8.2755815      72.26331     
     15000   2.9442772      3.6999166      0              8.1141761      71.384991    
     15250   2.9660017      3.7970808      0              8.2439111      72.403106    
     15500   2.9608298      3.7107383      0              8.1498144      71.275146    
     15750   2.9972217      3.6432302      0              8.1368675      70.569596    
     16000   3.089032       3.7859745      0              8.41726        72.684324    
     16250   2.9316905      3.6474596      0              8.0428482      70.50933     
     16500   3.1036966      3.6318753      0              8.285147       70.789422    
     16750   2.8715086      3.6757274      0              7.9808871      70.990703    
     17000   2.987391       3.7506271      0              8.2295255      72.250402    
     17250   2.9242842      3.5626301      0              7.9469145      69.686811    
     17500   2.9919224      3.5953213      0              8.0810135      70.07948     
     17750   3.0407443      3.6574275      0              8.2163168      71.037072    
     18000   2.9326918      3.5823358      0              7.9792255      69.691481    
     18250   3.0110689      3.6523806      0              8.1667785      70.66628     
     18500   2.9703834      3.6074474      0              8.060847       70.204165    
     18750   3.0044234      3.6708575      0              8.1752922      71.135008    
     19000   2.9626359      3.708526       0              8.1503099      71.399092    
     19250   2.8896472      3.7302635      0              8.0626179      71.488192    
     19500   3.0646221      3.6743064      0              8.2689949      71.197561    
     19750   2.9264476      3.6422122      0              8.0297402      70.526356    
     20000   3.1251884      3.6432005      0              8.3286941      70.879591    
     20250   2.9453775      3.5993625      0              8.0152715      70.015095    
     20500   3.049011       3.664298       0              8.2355813      71.16661     
     20750   2.9183083      3.6475982      0              8.0229231      70.969824    
     21000   2.9849284      3.647529       0              8.1227354      70.924979    
     21250   3.0047438      3.6702037      0              8.1751186      70.954392    
     21500   2.9534475      3.6079977      0              8.0360058      70.252768    
     21750   2.9946211      3.7032056      0              8.1929439      71.224834    
     22000   2.8622754      3.5908321      0              7.8821488      69.631229    
     22250   2.9487983      3.7228837      0              8.1439214      71.619393    
     22500   3.0006835      3.6799686      0              8.1787961      71.104174    
     22750   2.9346459      3.5794165      0              7.9792359      69.455372    
     23000   3.1160737      3.5760442      0              8.2478725      70.127475    
     23250   3.0224917      3.5075852      0              8.039109       69.210327    
     23500   3.0587841      3.7514749      0              8.3374107      72.103542    
     23750   2.9233575      3.6853418      0              8.0682369      71.146948    
     24000   3.1642642      3.6391527      0              8.3832314      70.624874    
     24250   3.0714348      3.5660815      0              8.1709841      69.896075    
     24500   2.9325695      3.6801843      0              8.0768907      70.810991    
     24750   3.0273411      3.7759859      0              8.3147803      72.493326    
     25000   2.9778614      3.5928296      0              8.0574407      69.696953    
     25250   3.0218722      3.7109782      0              8.2415732      71.439495    
     25500   3.021888       3.6419966      0              8.1726153      70.716341    
     25750   3.0031568      3.5989428      0              8.1014784      70.410999    
     26000   3.0441697      3.6938188      0              8.2578438      71.751193    
     26250   3.0238133      3.5752836      0              8.1087889      70.087267    
     26500   3.0179309      3.6048406      0              8.1295266      70.37959     
     26750   3.074835       3.5989933      0              8.2089936      70.53535     
     27000   2.9817144      3.5918517      0              8.0622394      70.129473    
     27250   3.0285137      3.6410427      0              8.1815951      70.659634    
     27500   2.9217079      3.723886       0              8.1043079      71.358181    
     27750   2.9409022      3.6196441      0              8.0288434      70.295213    
     28000   3.0831839      3.59549        0              8.2180077      70.516898    
     28250   2.9498093      3.5531414      0              7.9756948      69.644833    
     28500   2.9430747      3.7971187      0              8.2095751      72.209534    
     28750   3.0026154      3.5447032      0              8.0464272      69.200609    
     29000   3.036618       3.7713482      0              8.3240512      72.288105    
     29250   2.9959182      3.5939154      0              8.0855983      69.970972    
     29500   3.0071483      3.702409       0              8.2109289      71.708509    
     29750   2.9526413      3.7791076      0              8.205907       72.424138    
     30000   2.9652261      3.6377033      0              8.0833706      70.644603    
     30250   3.0984501      3.6203749      0              8.2657807      70.758352    
     30500   2.924712       3.6996122      0              8.0845381      71.313184    
     30750   2.992742       3.718499       0              8.20542        71.783473    
     31000   2.9777037      3.6564277      0              8.1208023      70.79358     
     31250   2.9959876      3.6250068      0              8.1167939      70.45747     
     31500   3.0269962      3.6610561      0              8.1993334      70.608681    
     31750   2.9726376      3.5635822      0              8.0203613      69.7676      
     32000   3.1003099      3.6273133      0              8.2755074      70.562601    
     32250   2.9864348      3.4860366      0              7.9635014      68.668138    
     32500   3.0000809      3.7180011      0              8.2159251      71.839873    
     32750   2.9443322      3.5622212      0              7.9765631      69.711096    
     33000   2.9772986      3.6749414      0              8.1387087      71.10768     
     33250   3.0046658      3.6431175      0              8.1479155      70.681734    
     33500   2.8881644      3.6202049      0              7.9503361      70.503014    
     33750   2.9703426      3.727937       0              8.1812753      71.708382    
     34000   2.9950243      3.5210636      0              8.0114064      69.455578    
     34250   3.0266982      3.6881699      0              8.2260004      70.958759    
     34500   3.0064517      3.5847302      0              8.0922058      70.229801    
     34750   3.0081378      3.4787886      0              7.988792       68.822276    
     35000   3.0326719      3.6977908      0              8.2445775      71.32271     
     35250   2.9041986      3.6412331      0              7.9954039      70.752378    
     35500   3.056011       3.6951835      0              8.2769618      71.240503    
     35750   2.9328865      3.638322       0              8.0355036      70.632449    
     36000   3.0611118      3.7304417      0              8.3198674      71.875854    
     36250   3.0373905      3.5949921      0              8.1488532      70.333852    
     36500   2.9712863      3.6856911      0              8.1404442      71.307251    
     36750   3.0757517      3.6447335      0              8.2561084      71.125302    
     37000   2.9489067      3.6006361      0              8.0218363      69.827464    
     37250   2.9915383      3.8093736      0              8.29449        72.298005    
     37500   3.0434735      3.5261916      0              8.0891727      69.633394    
     37750   2.9728888      3.7730382      0              8.2301941      72.073496    
     38000   3.0212671      3.6583915      0              8.1880793      70.85116     
     38250   3.0182694      3.6038337      0              8.1290271      70.156741    
     38500   3.0540658      3.7329065      0              8.3117683      72.030274    
     38750   2.9219236      3.659152       0              8.0398972      70.609155    
     39000   3.0383832      3.6663274      0              8.2216769      70.805166    
     39250   2.8909397      3.7643161      0              8.0986082      72.013075    
     39500   3.0357131      3.5959511      0              8.1472973      70.274026    
     39750   3.0108581      3.6560641      0              8.1701459      71.110475    
     40000   2.9322451      3.6335855      0              8.0298055      70.40352     
     40250   3.0127642      3.7347604      0              8.2517001      71.961649    
     40500   2.8933199      3.6231785      0              7.9610392      70.670124    
     40750   3.0077505      3.6751676      0              8.1845905      71.281514    
     41000   2.8933751      3.6819821      0              8.0199256      70.95031     
     41250   2.9247529      3.7091892      0              8.0941765      71.367577    
     41500   3.0086474      3.6807723      0              8.1915398      71.510306    
     41750   2.8905896      3.6308913      0              7.9646586      70.535113    
     42000   3.0200963      3.7274427      0              8.2553751      71.845296    
     42250   2.9577813      3.6217595      0              8.0562651      70.770457    
     42500   3.0181858      3.6355277      0              8.1605958      70.9337      
     42750   2.9774961      3.6918523      0              8.1559157      71.262375    
     43000   2.996263       3.5861132      0              8.0783132      70.121629    
     43250   3.0726492      3.5631103      0              8.1698335      69.577546    
     43500   2.9263495      3.5936152      0              7.980996       69.916302    
     43750   3.0207715      3.7114196      0              8.2403643      71.414112    
     44000   3.0206132      3.564964       0              8.0936715      69.744495    
     44250   2.8418239      3.5665691      0              7.8272235      69.267873    
     44500   3.0459228      3.6190178      0              8.1856711      70.525422    
     44750   2.9425759      3.6775289      0              8.0892376      70.853978    
     45000   2.9254947      3.7244253      0              8.1105247      71.372828    
     45250   3.0593111      3.5664275      0              8.1531534      69.435195    
     45500   2.962296       3.5452001      0              7.9864744      69.590555    
     45750   3.0366231      3.7032275      0              8.255938       71.455856    
     46000   2.9796366      3.5830859      0              8.0503585      70.102409    
     46250   3.0224561      3.6207759      0              8.1522464      70.24143     
     46500   3.0253437      3.632898       0              8.1686978      70.630991    
     46750   3.0030343      3.5928555      0              8.0952075      70.656648    
     47000   3.0737161      3.7125748      0              8.3208977      71.588222    
     47250   2.9400424      3.6387676      0              8.0466778      70.298013    
     47500   3.092329       3.6650547      0              8.3012834      70.975864    
     47750   3.0025767      3.6661435      0              8.1678094      70.770329    
     48000   2.9554068      3.69647        0              8.1274156      71.399415    
     48250   3.0531343      3.7474442      0              8.3249095      71.842745    
     48500   3.0204423      3.5342497      0              8.0627009      69.327423    
     48750   3.1209623      3.6593048      0              8.3384623      71.45342     
     49000   2.9965924      3.7274645      0              8.2201583      71.603023    
     49250   2.9602409      3.627112       0              8.0653053      70.390705    
     49500   3.1151019      3.6492986      0              8.3196698      71.155452    
     49750   2.9806342      3.5512139      0              8.0199822      69.315704    
     50000   3.0479198      3.6802756      0              8.2499229      71.237448    
Loop time of 6.94218 on 4 procs for 50000 steps with 2048 atoms

Performance: 3111413.758 tau/day, 7202.347 timesteps/s, 14.750 Matom-step/s
99.6% CPU use with 4 MPI tasks x 1 OpenMP threads

MPI task timing breakdown:
Section |  min time  |  avg time  |  max time  |%varavg| %total
---------------------------------------------------------------
Pair    | 2.0303     | 2.0845     | 2.1607     |   3.3 | 30.03
Neigh   | 1.9434     | 2.0646     | 2.2161     |   7.5 | 29.74
Comm    | 1.9384     | 2.0311     | 2.114      |   4.4 | 29.26
Output  | 0.0048628  | 0.0059804  | 0.0092615  |   2.4 |  0.09
Modify  | 0.39522    | 0.50892    | 0.61115    |  10.7 |  7.33
Other   |            | 0.2471     |            |       |  3.56

Nlocal:            512 ave         524 max         497 min
Histogram: 1 0 0 0 1 0 0 1 0 1
Nghost:            639 ave         653 max         628 min
Histogram: 1 0 0 1 1 0 0 0 0 1
Neighs:           3132 ave        3186 max        3015 min
Histogram: 1 0 0 0 0 0 0 1 0 2

Total # of neighbors = 12528
Ave neighs/atom = 6.1171875
Neighbor list builds = 10540
Dangerous builds = 0

unfix 1
dump           1 all atom ${run_steps} 3dWCA_T${final_temperature}_d${density}_N${run_steps}.lammpstrj
dump           1 all atom 100000 3dWCA_T${final_temperature}_d${density}_N${run_steps}.lammpstrj
dump           1 all atom 100000 3dWCA_T0.1_d${density}_N${run_steps}.lammpstrj
dump           1 all atom 100000 3dWCA_T0.1_d1.4_N${run_steps}.lammpstrj
dump           1 all atom 100000 3dWCA_T0.1_d1.4_N100000.lammpstrj
dump           2 all dcd ${thermo_time} 3dWCA_T${final_temperature}_d${density}_N${run_steps}.dcd
dump           2 all dcd 250 3dWCA_T${final_temperature}_d${density}_N${run_steps}.dcd
dump           2 all dcd 250 3dWCA_T0.1_d${density}_N${run_steps}.dcd
dump           2 all dcd 250 3dWCA_T0.1_d1.4_N${run_steps}.dcd
dump           2 all dcd 250 3dWCA_T0.1_d1.4_N100000.dcd
fix 1 all nvt temp ${initial_temperature} ${final_temperature} ${tau}
fix 1 all nvt temp 3 ${final_temperature} ${tau}
fix 1 all nvt temp 3 0.1 ${tau}
fix 1 all nvt temp 3 0.1 0.5

run ${run_steps}
run 100000
Generated 0 of 0 mixed pair_coeff terms from geometric mixing rule
Per MPI rank memory allocation (min/avg/max) = 3.169 | 3.169 | 3.17 Mbytes
   Step          Temp          E_pair         E_mol          TotEng         Press     
     50000   3.0479198      3.6802756      0              8.2499229      71.237448    
     50250   2.9846503      3.4813022      0              7.9560916      68.495752    
     50500   3.0365335      3.5448171      0              8.0973934      69.639529    
     50750   2.9856769      3.6442322      0              8.1205607      71.047074    
     51000   2.9102437      3.6289585      0              7.9921925      70.457609    
     51250   3.0168707      3.5994608      0              8.1225572      70.060125    
     51500   2.913157       3.6188962      0              7.986498       70.219646    
     51750   2.9132076      3.6486049      0              8.0162826      70.336584    
     52000   2.9172967      3.6380598      0              8.0118682      70.013302    
     52250   2.9005115      3.5368771      0              7.8855199      69.470835    
     52500   2.9800858      3.5668575      0              8.0348034      69.469628    
     52750   2.9112439      3.5168067      0              7.8815402      69.13595     
     53000   2.9518718      3.7511153      0              8.176761       71.461874    
     53250   2.8680338      3.5820274      0              7.8819776      70.067454    
     53500   2.9670853      3.4212573      0              7.869712       68.146402    
     53750   2.9202672      3.5493669      0              7.9276289      69.407668    
     54000   2.880668       3.4935201      0              7.8124122      68.695163    
     54250   2.9207652      3.6830546      0              8.0620632      71.486918    
     54500   2.8914679      3.4192846      0              7.7543686      67.959597    
     54750   2.8867573      3.5034698      0              7.8314914      68.889075    
     55000   2.7892493      3.5939115      0              7.7757425      69.547569    
     55250   2.9069728      3.3851316      0              7.7434618      67.213741    
     55500   2.867888       3.5432276      0              7.8429591      69.582128    
     55750   2.7784311      3.4655687      0              7.6311804      68.564305    
     56000   2.9604869      3.3939605      0              7.8325225      67.557133    
     56250   2.8118017      3.3779338      0              7.5935769      67.140003    
     56500   2.8864737      3.4129712      0              7.7405676      67.295779    
     56750   2.7198008      3.4467831      0              7.5244922      68.173115    
     57000   2.8368454      3.4278684      0              7.6810587      67.888013    
     57250   2.7786102      3.243474       0              7.4093542      65.443389    
     57500   2.8583194      3.352798       0              7.6381836      66.879984    
     57750   2.6737908      3.3320769      0              7.3408048      66.58175     
     58000   2.7725646      3.382626       0              7.5394423      67.254753    
     58250   2.7603711      3.3226691      0              7.461204       66.638747    
     58500   2.7656661      3.3143562      0              7.4608297      66.558711    
     58750   2.7741935      3.3355127      0              7.4947711      66.523623    
     59000   2.6380145      3.2464064      0              7.2014961      65.275563    
     59250   2.7452253      3.3125642      0              7.4283915      66.474071    
     59500   2.6834831      3.3882269      0              7.4114862      67.36614     
     59750   2.7049796      3.2349677      0              7.290456       65.51199     
     60000   2.7283136      3.3418105      0              7.4322827      66.930168    
     60250   2.6356016      3.3482531      0              7.2997252      66.394081    
     60500   2.8023513      3.4322034      0              7.6336779      67.963879    
     60750   2.6723179      3.2948585      0              7.3013782      66.176641    
     61000   2.7173263      3.2082691      0              7.2822684      65.015317    
     61250   2.7081537      3.3003351      0              7.3605822      66.301444    
     61500   2.6632918      3.2475985      0              7.2405855      65.455678    
     61750   2.6652882      3.3674127      0              7.3633929      67.178705    
     62000   2.5908209      3.2271119      0              7.1114456      65.106355    
     62250   2.7243712      3.2858815      0              7.3704428      66.3975      
     62500   2.6135367      3.1709557      0              7.0893465      64.678675    
     62750   2.6665869      3.269634       0              7.2675613      65.900534    
     63000   2.5665479      3.1775493      0              7.0254913      64.3409      
     63250   2.6271347      3.208261       0              7.1470389      65.037345    
     63500   2.6426708      3.1485276      0              7.1105982      64.130983    
     63750   2.5652958      3.1185475      0              6.9646124      63.304764    
     64000   2.630666       3.1298942      0              7.0739665      64.25822     
     64250   2.567933       3.1868887      0              7.0369075      64.59764     
     64500   2.4774382      3.0852387      0              6.7995815      63.523388    
     64750   2.5609888      3.2616484      0              7.1012559      65.780408    
     65000   2.5517387      3.0540532      0              6.8797924      62.750639    
     65250   2.6841238      3.1266273      0              7.150847       63.793535    
     65500   2.5332322      3.1805088      0              6.9785016      64.51677     
     65750   2.5447769      3.0620415      0              6.877343       63.109397    
     66000   2.5955376      3.1627092      0              7.0541145      64.278344    
     66250   2.5194199      3.0967949      0              6.8740795      63.447939    
     66500   2.4633702      3.1522617      0              6.8455127      63.893099    
     66750   2.5187         3.1138032      0              6.8900085      63.319839    
     67000   2.4486562      3.0498156      0              6.7210064      62.979805    
     67250   2.4877725      3.2013834      0              6.9312201      64.623704    
     67500   2.470473       3.0575533      0              6.7614535      62.936335    
     67750   2.4718092      3.0644316      0              6.770335       62.971792    
     68000   2.5460426      3.1058393      0              6.9230384      63.551669    
     68250   2.4505989      2.9878893      0              6.6619928      61.907442    
     68500   2.5066388      3.0949916      0              6.8531139      63.39997     
     68750   2.4646168      2.9589595      0              6.6540796      61.607337    
     69000   2.4973655      2.9641192      0              6.7083383      61.93422     
     69250   2.439317       2.9459518      0              6.6031407      61.358301    
     69500   2.4387764      2.9989062      0              6.6552845      61.854061    
     69750   2.4090067      3.0558141      0              6.6675598      62.791771    
     70000   2.3757621      2.9697262      0              6.5316293      61.600149    
     70250   2.4334814      3.0855366      0              6.7339763      63.327516    
     70500   2.36977        2.9754912      0              6.5284106      61.855133    
     70750   2.4468431      2.970999       0              6.6394715      61.390003    
     71000   2.4082357      2.865464       0              6.4760537      60.325876    
     71250   2.4083216      2.9125954      0              6.5233139      60.952299    
     71500   2.4463475      2.9376796      0              6.6054091      61.337095    
     71750   2.3264292      2.9216883      0              6.4096282      60.748386    
     72000   2.3736224      2.9983187      0              6.5570137      62.029798    
     72250   2.3448833      2.8206049      0              6.3362124      59.728304    
     72500   2.3486973      2.9693986      0              6.4907243      61.59172     
     72750   2.3160342      2.8793794      0              6.3517343      60.516661    
     73000   2.3753176      2.8014724      0              6.3627091      59.677706    
     73250   2.3358675      2.8279103      0              6.3300007      60.004841    
     73500   2.3205365      2.8461803      0              6.3252854      59.876278    
     73750   2.3588129      2.7481622      0              6.2846539      58.513041    
     74000   2.3296395      2.7786258      0              6.2713788      59.050942    
     74250   2.2927884      2.8322468      0              6.2697501      59.668279    
     74500   2.2746587      2.7755994      0              6.1859214      58.833753    
     74750   2.3404692      2.7589875      0              6.267977       58.911733    
     75000   2.2495049      2.7289959      0              6.1016056      58.349196    
     75250   2.2616863      2.8364239      0              6.2272969      59.863188    
     75500   2.2088439      2.6778888      0              5.9895368      57.540766    
     75750   2.2730349      2.7744042      0              6.1822917      59.271076    
     76000   2.1957301      2.7086658      0              6.0006527      58.07501     
     76250   2.2171684      2.7163606      0              6.0404893      58.193589    
     76500   2.2860836      2.7211025      0              6.1485536      58.214598    
     76750   2.17209        2.6837696      0              5.9403137      57.533054    
     77000   2.2777038      2.6916508      0              6.1065382      58.04949     
     77250   2.2030846      2.6854702      0              5.9884835      58.041557    
     77500   2.1326358      2.6406105      0              5.8380023      57.162263    
     77750   2.2147641      2.733792       0              6.054316       58.503       
     78000   2.1925857      2.5607195      0              5.8479921      56.210658    
     78250   2.2186581      2.7637924      0              6.0901546      58.81181     
     78500   2.1513039      2.6387461      0              5.8641262      56.808767    
     78750   2.1915689      2.7343181      0              6.0200663      58.693096    
     79000   2.1411598      2.6797913      0              5.8899628      58.039715    
     79250   2.1715806      2.60797        0              5.8637504      56.786168    
     79500   2.1558095      2.5885158      0              5.8206511      56.462494    
     79750   2.1360814      2.637517       0              5.8400746      57.005004    
     80000   2.1403228      2.636816       0              5.8457326      57.141386    
     80250   2.1110766      2.6117219      0              5.7767906      56.566908    
     80500   2.1791608      2.6688624      0              5.9360076      57.644789    
     80750   2.0820897      2.5711479      0              5.6927574      55.965357    
     81000   2.1834814      2.5627659      0              5.8363889      56.117723    
     81250   2.041783       2.5929771      0              5.6541562      56.333548    
     81500   2.0945031      2.6176615      0              5.7578821      56.873752    
     81750   2.0808625      2.4865737      0              5.6063433      55.062213    
     82000   2.0557557      2.6215381      0              5.703666       56.808371    
     82250   2.0174479      2.5221827      0              5.546877       55.537494    
     82500   2.0497937      2.5968116      0              5.6700008      56.500964    
     82750   2.049868       2.4388486      0              5.5121492      54.040205    
     83000   2.0698159      2.4893736      0              5.5925815      55.088698    
     83250   2.0521491      2.4353636      0              5.5120842      54.062177    
     83500   2.0377267      2.4908006      0              5.5458982      55.104304    
     83750   2.0282022      2.5004913      0              5.5413091      54.917534    
     84000   2.0391462      2.4398698      0              5.4970955      54.342934    
     84250   1.9822305      2.4914181      0              5.4633121      55.124599    
     84500   2.001977       2.3866535      0              5.3881527      53.599743    
     84750   2.0139192      2.4946418      0              5.5140455      54.941461    
     85000   1.9858486      2.4323632      0              5.4096817      54.014133    
     85250   1.9873965      2.4313887      0              5.4110279      54.077474    
     85500   1.9737909      2.3550797      0              5.3143204      53.07331     
     85750   2.0395598      2.4229123      0              5.4807581      54.31044     
     86000   1.930172       2.4088566      0              5.302701       53.58898     
     86250   1.9619376      2.4423705      0              5.3838399      54.439011    
     86500   1.9168959      2.3495328      0              5.2234726      53.005295    
     86750   1.9733594      2.4127992      0              5.371393       53.418926    
     87000   1.9409554      2.4042316      0              5.314243       53.821425    
     87250   1.9398747      2.2676876      0              5.1760788      51.884569    
     87500   1.9736318      2.3842489      0              5.343251       53.708214    
     87750   1.9060114      2.3387562      0              5.1963772      52.870017    
     88000   1.9288939      2.2934536      0              5.1853816      52.437463    
     88250   1.857724       2.352705       0              5.1379303      52.864886    
     88500   1.8130789      2.4175544      0              5.1358449      53.73147     
     88750   1.9023932      2.3243389      0              5.1765353      52.724436    
     89000   1.9007333      2.2414178      0              5.0911256      51.495213    
     89250   1.9120986      2.320774       0              5.1875215      52.560471    
     89500   1.7866015      2.3243522      0              5.0029459      52.611057    
     89750   1.9326132      2.2723159      0              5.1698201      52.018084    
     90000   1.8425126      2.207336       0              4.9697554      50.985609    
     90250   1.8631934      2.2996049      0              5.0930303      52.450496    
     90500   1.7983516      2.2164895      0              4.9126997      51.219113    
     90750   1.8237227      2.3105547      0              5.0448029      52.616089    
     91000   1.787547       2.1765693      0              4.8565806      50.569778    
     91250   1.8109803      2.2956666      0              5.0108107      51.899867    
     91500   1.7707719      2.1762001      0              4.831061       50.286662    
     91750   1.7809443      2.2721641      0              4.9422761      51.855126    
     92000   1.7462942      2.1728051      0              4.7909674      50.196449    
     92250   1.7745101      2.2231802      0              4.8836457      51.349366    
     92500   1.7540881      2.2280007      0              4.8578481      51.046605    
     92750   1.7717308      2.1125634      0              4.7688619      49.362321    
     93000   1.7106158      2.1798664      0              4.7445371      50.222902    
     93250   1.7739805      2.1615101      0              4.8211816      50.293558    
     93500   1.7422849      2.1081287      0              4.7202799      49.638641    
     93750   1.7162165      2.2135379      0              4.7866057      50.962883    
     94000   1.7126147      2.0708232      0              4.6384909      48.869588    
     94250   1.7371504      2.1922109      0              4.7966641      50.499911    
     94500   1.7078579      2.1355848      0              4.6961207      49.572226    
     94750   1.6781511      2.08939        0              4.6053875      49.120605    
     95000   1.6734269      2.0932883      0              4.602203       49.26022     
     95250   1.7175621      2.0718758      0              4.646961       48.88806     
     95500   1.6711331      2.0560281      0              4.5615038      48.489008    
     95750   1.7063925      2.0685755      0              4.6269146      48.576557    
     96000   1.6196785      2.0473693      0              4.4757008      48.497444    
     96250   1.7118997      2.0620591      0              4.6286549      48.545252    
     96500   1.6442766      2.065126       0              4.5303366      48.623587    
     96750   1.6554286      1.9741386      0              4.456069       47.363447    
     97000   1.6834346      2.0395442      0              4.563463       48.422716    
     97250   1.6376312      1.9568531      0              4.4121005      46.913919    
     97500   1.6618689      2.0213813      0              4.5129675      48.165976    
     97750   1.6256524      2.0440676      0              4.4813555      48.36942     
     98000   1.5882414      1.9766739      0              4.3578727      47.193102    
     98250   1.6409722      1.9937712      0              4.4540275      47.799614    
     98500   1.5850746      1.9648955      0              4.3413464      47.264176    
     98750   1.5737731      1.9946003      0              4.3541073      47.872442    
     99000   1.6100855      1.9360753      0              4.3500243      46.844356    
     99250   1.5485713      1.9396219      0              4.2613447      46.856775    
     99500   1.6128554      1.9690423      0              4.3871441      47.190925    
     99750   1.5199843      1.9644194      0              4.2432826      47.220581    
    100000   1.5713711      1.9092656      0              4.2651714      46.217636    
    100250   1.5671559      1.8991611      0              4.2487471      46.163061    
    100500   1.5326804      1.8963757      0              4.1942737      45.966973    
    100750   1.5166363      1.9391859      0              4.2130296      46.761311    
    101000   1.5383808      1.7902033      0              4.0966477      44.640995    
    101250   1.5568323      1.9063247      0              4.2404329      46.220892    
    101500   1.4965759      1.8744333      0              4.118201       45.721252    
    101750   1.4823735      1.8862043      0              4.1086789      46.009581    
    102000   1.4855828      1.8452471      0              4.0725333      45.268328    
    102250   1.5013142      1.7835974      0              4.0344691      44.574786    
    102500   1.5100927      1.8564505      0              4.1204836      45.626938    
    102750   1.4798839      1.7881418      0              4.0068837      44.428697    
    103000   1.516607       1.8075464      0              4.081346       45.200418    
    103250   1.444033       1.7715405      0              3.9365324      43.991828    
    103500   1.5040083      1.8067965      0              4.0617074      44.72186     
    103750   1.4029931      1.8152125      0              3.9186746      44.531829    
    104000   1.4640185      1.7614469      0              3.9564023      43.978382    
    104250   1.4151963      1.7559742      0              3.8777321      44.224724    
    104500   1.4159597      1.7763992      0              3.8993016      44.334797    
    104750   1.4692698      1.799698       0              4.0025266      44.60373     
    105000   1.4089908      1.7023403      0              3.8147945      42.872971    
    105250   1.4117331      1.765753       0              3.8823186      44.031986    
    105500   1.3832862      1.7113082      0              3.7852244      43.266355    
    105750   1.3873222      1.7254459      0              3.805413       43.482694    
    106000   1.4034369      1.7002891      0              3.8044164      43.164798    
    106250   1.3625115      1.6900869      0              3.7328562      42.892822    
    106500   1.4198993      1.7160288      0              3.8448379      43.562359    
    106750   1.3385174      1.6767791      0              3.6835748      42.5932      
    107000   1.3456405      1.7343307      0              3.7518059      43.711806    
    107250   1.3054435      1.6768051      0              3.6340142      42.57244     
    107500   1.3588587      1.658358       0              3.6956508      42.301712    
    107750   1.3155735      1.6849377      0              3.6573344      42.638001    
    108000   1.3266201      1.6006667      0              3.5896251      41.511523    
    108250   1.3332569      1.6752627      0              3.6741715      42.610555    
    108500   1.2912472      1.6005451      0              3.5364701      41.559088    
    108750   1.3095831      1.676125       0              3.6395405      42.520192    
    109000   1.2951629      1.5758083      0              3.517604       41.008675    
    109250   1.2687638      1.6225898      0              3.5248061      41.524535    
    109500   1.2937941      1.5904729      0              3.5302165      41.266199    
    109750   1.2578306      1.5769859      0              3.4628105      41.185485    
    110000   1.2836354      1.6314828      0              3.5559957      41.981938    
    110250   1.2365891      1.556068       0              3.4100459      40.547014    
    110500   1.2560757      1.5856348      0              3.4688284      40.976534    
    110750   1.2380038      1.5171523      0              3.3732513      39.841727    
    111000   1.240821       1.5400826      0              3.4004053      40.319026    
    111250   1.2464652      1.5336267      0              3.4024116      40.41615     
    111500   1.2302329      1.4693631      0              3.3138114      39.378606    
    111750   1.2300052      1.530585       0              3.3746919      40.143366    
    112000   1.1944959      1.4735685      0              3.2644374      39.278391    
    112250   1.2083028      1.5076415      0              3.3192108      39.816981    
    112500   1.1932956      1.4946381      0              3.2837075      39.252364    
    112750   1.1824062      1.4400965      0              3.2128398      38.800662    
    113000   1.200783       1.4737747      0              3.2740697      39.223882    
    113250   1.1549286      1.4405195      0              3.1720665      38.57787     
    113500   1.1734399      1.4498781      0              3.2091785      38.978919    
    113750   1.170719       1.4325568      0              3.1877778      38.728236    
    114000   1.107561       1.4611209      0              3.1216512      39.075327    
    114250   1.1485101      1.4565364      0              3.1784603      39.172014    
    114500   1.1153841      1.3948286      0              3.0670878      38.060567    
    114750   1.1383101      1.4294233      0              3.1360548      38.506838    
    115000   1.1313005      1.3801298      0              3.076252       37.73793     
    115250   1.0896981      1.3836597      0              3.0174087      37.719539    
    115500   1.0888903      1.4302473      0              3.0627852      38.399762    
    115750   1.0677703      1.3761469      0              2.9770202      37.624342    
    116000   1.0972748      1.3536313      0              2.9987398      37.256926    
    116250   1.0898062      1.3815574      0              3.0154684      37.758389    
    116500   1.0571962      1.3382005      0              2.9232205      36.860992    
    116750   1.0516464      1.3701755      0              2.9468748      37.487648    
    117000   1.0466897      1.3147286      0              2.8839965      36.529816    
    117250   1.0560481      1.3066816      0              2.8899803      36.481088    
    117500   1.0823449      1.32143        0              2.9441546      36.733113    
    117750   1.0290441      1.2810423      0              2.8238547      36.136286    
    118000   1.0405436      1.2659957      0              2.826049       35.705789    
    118250   1.0428314      1.2617462      0              2.8252295      35.782749    
    118500   1.0063748      1.2691931      0              2.7780182      35.639211    
    118750   1.0326822      1.2481728      0              2.7964397      35.348808    
    119000   0.97448225     1.2494722      0              2.7104819      35.561114    
    119250   1.0237472      1.2796909      0              2.8145619      35.891104    
    119500   1.0026071      1.2144465      0              2.7176229      34.879392    
    119750   0.96133355     1.2161885      0              2.6574847      34.644985    
    120000   1.001954       1.2333585      0              2.7355557      35.219213    
    120250   0.95668853     1.206131       0              2.6404631      34.544451    
    120500   0.93307563     1.1959493      0              2.5948794      34.396488    
    120750   0.94455908     1.1856025      0              2.6017493      34.157364    
    121000   0.93847947     1.1974518      0              2.6044837      34.630536    
    121250   0.91591068     1.1908535      0              2.5640487      34.27381     
    121500   0.91296316     1.1165237      0              2.4852998      33.057899    
    121750   0.93963426     1.1530195      0              2.5617827      33.607627    
    122000   0.90062662     1.1467504      0              2.4970307      33.406806    
    122250   0.88793152     1.1555678      0              2.4868147      33.553174    
    122500   0.88959758     1.140132       0              2.4738768      33.431869    
    122750   0.86913237     1.0997933      0              2.4028553      32.835326    
    123000   0.86582711     1.1236748      0              2.4217813      33.126303    
    123250   0.87439439     1.1034068      0              2.414358       33.016306    
    123500   0.8600573      1.0943732      0              2.3838292      32.648386    
    123750   0.85088439     1.0766399      0              2.3523433      32.274311    
    124000   0.8562666      1.0605307      0              2.3443035      32.034069    
    124250   0.85424158     1.0733163      0              2.354053       32.279869    
    124500   0.84825119     1.0278511      0              2.2996066      31.261802    
    124750   0.83518995     1.0117829      0              2.2639561      31.221686    
    125000   0.83897441     1.0545686      0              2.3124157      31.914516    
    125250   0.81491403     1.0157859      0              2.2375601      31.125424    
    125500   0.80227345     1.030479       0              2.2333016      31.320119    
    125750   0.79132415     0.99114416     0              2.1775508      30.523593    
    126000   0.82535901     1.0062998      0              2.2437338      30.944866    
    126250   0.79526252     0.98045086     0              2.1727622      30.543257    
    126500   0.78514644     0.94014557     0              2.1172902      29.743193    
    126750   0.77047055     0.96721374     0              2.1223553      30.34236     
    127000   0.77803271     0.95259013     0              2.1190693      30.020095    
    127250   0.76343188     0.94287361     0              2.0874623      29.826503    
    127500   0.75663105     0.90731739     0              2.0417098      29.322269    
    127750   0.7436767      0.95586468     0              2.070835       29.93208     
    128000   0.75536207     0.91933024     0              2.0518201      29.316347    
    128250   0.73990887     0.88852755     0              1.9978489      28.887564    
    128500   0.7027598      0.88149995     0              1.9351249      28.630782    
    128750   0.72864259     0.90319338     0              1.9956236      28.993005    
    129000   0.71885725     0.86935492     0              1.9471143      28.44636     
    129250   0.70496911     0.87500576     0              1.9319431      28.423613    
    129500   0.67700593     0.84172727     0              1.8567403      27.802719    
    129750   0.69024435     0.86912762     0              1.9039886      28.440734    
    130000   0.67640663     0.84926633     0              1.8633809      27.935394    
    130250   0.67051783     0.84815876     0              1.8534444      27.95024     
    130500   0.65428347     0.81244721     0              1.7933932      27.308889    
    130750   0.67826573     0.8355206      0              1.8524224      27.618053    
    131000   0.65891235     0.80147291     0              1.7893588      26.912608    
    131250   0.64227663     0.79437166     0              1.7573162      26.886826    
    131500   0.63364121     0.76851685     0              1.7185146      26.413779    
    131750   0.62343516     0.82108769     0              1.7557838      27.167971    
    132000   0.62150584     0.77674977     0              1.7085533      26.103869    
    132250   0.60378774     0.75727407     0              1.6625134      26.222527    
    132500   0.60014546     0.76725468     0              1.6670333      26.22561     
    132750   0.59754016     0.76128855     0              1.6571611      26.109806    
    133000   0.59543357     0.73984655     0              1.6325608      25.733888    
    133250   0.56419992     0.74002564     0              1.5859123      25.573274    
    133500   0.57808101     0.7295691      0              1.5962672      25.423488    
    133750   0.58128419     0.71543503     0              1.5869356      25.287496    
    134000   0.56331554     0.68964012     0              1.5342008      24.590567    
    134250   0.56115486     0.71886942     0              1.5601907      25.246928    
    134500   0.54774398     0.68200617     0              1.503221       24.427106    
    134750   0.54309469     0.66922814     0              1.4834724      24.332163    
    135000   0.5366141      0.64321292     0              1.447741       23.637115    
    135250   0.53796661     0.6754199      0              1.4819758      24.355496    
    135500   0.52358372     0.64547916     0              1.4304713      23.735644    
    135750   0.50601244     0.6398571      0              1.3985051      23.583163    
    136000   0.51086395     0.60338407     0              1.3693058      22.625922    
    136250   0.51030539     0.62245011     0              1.3875344      23.008312    
    136500   0.49369903     0.61126745     0              1.3514544      22.918411    
    136750   0.48510183     0.59810702     0              1.3254045      22.668813    
    137000   0.47342201     0.58190743     0              1.2916937      22.190282    
    137250   0.47978606     0.58408143     0              1.3034091      22.277346    
    137500   0.46191221     0.57644378     0              1.2689738      22.042694    
    137750   0.45738542     0.54957745     0              1.2353206      21.42708     
    138000   0.45445233     0.55043528     0              1.2317809      21.647211    
    138250   0.44226791     0.53218278     0              1.1952607      21.186861    
    138500   0.42853507     0.55267612     0              1.1951648      21.47215     
    138750   0.42395975     0.5307005      0              1.1663296      20.994459    
    139000   0.42054719     0.51901089     0              1.1495237      20.773662    
    139250   0.3981802      0.51190356     0              1.1088822      20.625132    
    139500   0.42003426     0.52344231     0              1.1531861      20.844428    
    139750   0.398858       0.49510304     0              1.0930979      20.200098    
    140000   0.39106734     0.47357521     0              1.0598898      19.78381     
    140250   0.37879251     0.47912861     0              1.0470399      19.860504    
    140500   0.38093144     0.44809744     0              1.0192156      18.981707    
    140750   0.38337726     0.46324691     0              1.038032       19.367816    
    141000   0.36207273     0.44750284     0              0.99034674     18.88333     
    141250   0.34854035     0.43852421     0              0.96107945     18.83397     
    141500   0.34160476     0.41600652     0              0.92816347     18.116422    
    141750   0.34175261     0.42866219     0              0.9410408      18.480175    
    142000   0.33248143     0.41146385     0              0.90994248     18.119229    
    142250   0.3304232      0.39676619     0              0.89215898     17.669389    
    142500   0.32280843     0.39145248     0              0.87542869     17.52093     
    142750   0.31904542     0.36961309     0              0.84794754     16.853379    
    143000   0.30725026     0.37371016     0              0.83436052     17.076543    
    143250   0.29596136     0.37135847     0              0.81508375     16.888516    
    143500   0.28759608     0.35937898     0              0.79056246     16.687679    
    143750   0.2888879      0.34080362     0              0.77392388     16.193367    
    144000   0.27380963     0.34409445     0              0.75460834     16.301975    
    144250   0.263705       0.33679021     0              0.73215456     16.153446    
    144500   0.26061396     0.32252771     0              0.71325776     15.619648    
    144750   0.25819561     0.30703576     0              0.69414006     15.185696    
    145000   0.25500715     0.29062922     0              0.67295316     14.762372    
    145250   0.23817558     0.29583447     0              0.6529234      14.944436    
    145500   0.23223765     0.28531297     0              0.63349935     14.523126    
    145750   0.22196709     0.28096415     0              0.61375221     14.472238    
    146000   0.22043458     0.26267709     0              0.59316752     13.856729    
    146250   0.21393788     0.25228196     0              0.57303209     13.589675    
    146500   0.19896612     0.25511366     0              0.55341712     13.660579    
    146750   0.1997093      0.23354352     0              0.5329612      12.88274     
    147000   0.19470301     0.221001       0              0.51291292     12.622168    
    147250   0.18781284     0.21151749     0              0.4930992      12.189292    
    147500   0.17567779     0.20968423     0              0.47307225     12.19392     
    147750   0.16432158     0.20675805     0              0.45312007     12.006717    
    148000   0.16103732     0.19156556     0              0.4330036      11.482682    
    148250   0.15245924     0.18449986     0              0.41307706     11.287044    
    148500   0.14588892     0.17419751     0              0.39292404     11.014419    
    148750   0.1405381      0.16234573     0              0.37304994     10.504331    
    149000   0.12972576     0.15867457     0              0.35316819     10.354445    
    149250   0.12386419     0.14734463     0              0.3330502      9.9051751    
    149500   0.1183953      0.13573654     0              0.31324278     9.4590278    
    149750   0.1086056      0.13053501     0              0.29336387     9.2924494    
    150000   0.10264643     0.11966636     0              0.27356083     8.7752122    
Loop time of 12.0315 on 4 procs for 100000 steps with 2048 atoms

Performance: 3590561.425 tau/day, 8311.485 timesteps/s, 17.022 Matom-step/s
99.2% CPU use with 4 MPI tasks x 1 OpenMP threads

MPI task timing breakdown:
Section |  min time  |  avg time  |  max time  |%varavg| %total
---------------------------------------------------------------
Pair    | 3.9579     | 4.0614     | 4.2047     |   4.5 | 33.76
Neigh   | 2.3931     | 2.5479     | 2.739      |   8.5 | 21.18
Comm    | 3.6015     | 3.6773     | 3.7665     |   3.9 | 30.56
Output  | 0.26742    | 0.26783    | 0.26882    |   0.1 |  2.23
Modify  | 0.79876    | 1.017      | 1.2133     |  14.6 |  8.45
Other   |            | 0.4601     |            |       |  3.82

Nlocal:            512 ave         532 max         492 min
Histogram: 1 0 0 0 1 1 0 0 0 1
Nghost:            637 ave         657 max         617 min
Histogram: 1 0 0 0 1 1 0 0 0 1
Neighs:           3072 ave        3221 max        2928 min
Histogram: 1 0 0 1 0 1 0 0 0 1

Total # of neighbors = 12288
Ave neighs/atom = 6
Neighbor list builds = 13779
Dangerous builds = 0
Total wall time: 0:00:19
