LAMMPS (15 Sep 2022)
OMP_NUM_THREADS environment is not set. Defaulting to 1 thread. (src/comm.cpp:98)
  using 1 OpenMP thread(s) per MPI task
# 2d WCA system, random initial configuration

#variable density equal 1.5
variable initial_temperature equal 3.0
variable final_temperature equal 0.1
variable dt equal 0.005
variable tau equal 100*${dt}
variable tau equal 100*0.005
variable thermo_time equal 50000*${dt}
variable thermo_time equal 50000*0.005
variable equil_steps equal 50000
variable run_steps equal 100000

units           lj
atom_style      atomic
dimension       3

lattice         fcc ${density}
lattice         fcc 1.5
Lattice spacing in x,y,z = 1.3867225 1.3867225 1.3867225
region          box block 0 8 0 8 0 8
# number of atom types
create_box      1 box
Created orthogonal box = (0 0 0) to (11.09378 11.09378 11.09378)
  1 by 2 by 2 MPI processor grid
create_atoms    1 box
Created 2048 atoms
  using lattice units in orthogonal box = (0 0 0) to (11.09378 11.09378 11.09378)
  create_atoms CPU = 0.024 seconds
mass 1 1.0

velocity all create ${initial_temperature} 12345
velocity all create 3 12345

pair_style      lj/cut 1.0
#type_1 type_2 epsilon sigma cutoff
pair_coeff      1 1 10.0 0.89089871814 1.0
pair_modify shift yes

timestep ${dt}
timestep 0.005
thermo ${thermo_time}
thermo 250

fix 1 all nvt temp ${initial_temperature} ${initial_temperature} ${tau}
fix 1 all nvt temp 3 ${initial_temperature} ${tau}
fix 1 all nvt temp 3 3 ${tau}
fix 1 all nvt temp 3 3 0.5
run ${equil_steps}
run 50000
Generated 0 of 0 mixed pair_coeff terms from geometric mixing rule
Neighbor list info ...
  update: every = 1 steps, delay = 0 steps, check = yes
  max neighbors/atom: 2000, page size: 100000
  master list distance cutoff = 1.3
  ghost atom cutoff = 1.3
  binsize = 0.65, bins = 18 18 18
  1 neighbor lists, perpetual/occasional/extra = 1 0 0
  (1) pair lj/cut, perpetual
      attributes: half, newton on
      pair build: half/bin/atomonly/newton
      stencil: half/bin/3d
      bin: standard
Per MPI rank memory allocation (min/avg/max) = 3.098 | 3.098 | 3.098 Mbytes
   Step          Temp          E_pair         E_mol          TotEng         Press     
         0   3              0.9375         0              5.4353027      55.122803    
       250   1.9474324      3.9579276      0              6.8776499      90.529358    
       500   2.6576922      4.9131237      0              8.8977154      103.08482    
       750   3.1162885      5.7440961      0              10.416246      112.94587    
      1000   2.9661811      5.43715        0              9.8842491      109.69427    
      1250   2.9723697      5.5114774      0              9.9678549      110.39129    
      1500   3.1005943      5.5659104      0              10.214531      111.26377    
      1750   2.8654295      5.4989661      0              9.7950117      110.07095    
      2000   3.0561511      5.653204       0              10.235192      111.76461    
      2250   3.0052466      5.4041369      0              9.9098058      109.08627    
      2500   3.006951       5.5178779      0              10.026102      110.72919    
      2750   3.0703917      5.5240909      0              10.12743       110.35655    
      3000   2.9541891      5.4395047      0              9.8686246      109.39305    
      3250   3.0662791      5.581959       0              10.179132      111.24378    
      3500   2.8946287      5.5739524      0              9.9137754      110.77453    
      3750   3.0553768      5.4839396      0              10.064767      110.295      
      4000   3.0305377      5.5293894      0              10.072976      110.64851    
      4250   2.9184037      5.5439359      0              9.9194039      110.35392    
      4500   2.9945864      5.6750887      0              10.164775      112.08202    
      4750   2.9436731      5.4979086      0              9.9112623      110.30608    
      5000   3.0313957      5.5565976      0              10.101471      111.10547    
      5250   3.0285534      5.4140464      0              9.9546583      109.182      
      5500   2.9158128      5.6126799      0              9.9842635      111.13697    
      5750   2.9962206      5.5541575      0              10.046294      111.00793    
      6000   2.8920179      5.4571402      0              9.7930489      109.8821     
      6250   3.0057375      5.563891       0              10.070296      110.86935    
      6500   2.9625724      5.5177247      0              9.9594135      110.09441    
      6750   2.9923476      5.4435744      0              9.9299041      109.25987    
      7000   2.9506308      5.637808       0              10.061593      111.66182    
      7250   2.9623074      5.5021496      0              9.9434411      109.91921    
      7500   2.9676335      5.6048065      0              10.054083      111.21817    
      7750   3.0687516      5.4389821      0              10.039862      109.84545    
      8000   2.9080834      5.550072       0              9.9100671      110.43742    
      8250   3.0098752      5.6600292      0              10.172638      111.7374     
      8500   2.880436       5.5926202      0              9.9111645      110.9868     
      8750   3.0830088      5.4613322      0              10.083587      109.82139    
      9000   2.999025       5.5135565      0              10.009898      110.39872    
      9250   2.9751542      5.4837205      0              9.9442728      109.70737    
      9500   3.0477775      5.5933542      0              10.162788      111.36994    
      9750   2.9210188      5.5394935      0              9.9188823      110.57877    
     10000   3.0477053      5.5513772      0              10.120703      110.88864    
     10250   2.9683081      5.4443969      0              9.8946851      109.55359    
     10500   3.0286717      5.5752138      0              10.116003      110.72436    
     10750   3.014699       5.5249121      0              10.044753      110.38413    
     11000   3.0536561      5.4264331      0              10.004681      109.32928    
     11250   3.0152674      5.5090807      0              10.029773      110.33227    
     11500   3.0079564      5.5140953      0              10.023827      110.36368    
     11750   3.0188896      5.5180401      0              10.044163      110.38411    
     12000   3.0239172      5.4973666      0              10.031028      110.16689    
     12250   2.9309617      5.4838991      0              9.878195       110.05037    
     12500   3.0729385      5.5262037      0              10.133361      110.44464    
     12750   2.9889211      5.4324         0              9.9135926      109.6347     
     13000   2.9758665      5.5520639      0              10.013684      110.35363    
     13250   3.0070841      5.5988608      0              10.107284      111.08578    
     13500   3.0143086      5.3359001      0              9.8551552      108.19862    
     13750   3.0501637      5.5884274      0              10.161439      111.15033    
     14000   2.9775252      5.484661       0              9.948768       110.36287    
     14250   3.0993635      5.5207153      0              10.16749       110.72797    
     14500   2.9806666      5.5050891      0              9.9739059      110.51282    
     14750   2.9705627      5.5814572      0              10.035126      111.04138    
     15000   3.0693536      5.7605517      0              10.362334      113.10038    
     15250   2.9720215      5.5500734      0              10.005929      110.42909    
     15500   2.9861632      5.5555418      0              10.032599      110.8509     
     15750   3.0002577      5.6072666      0              10.105456      111.07773    
     16000   2.9402471      5.6004312      0              10.008648      111.02506    
     16250   3.0279884      5.6699249      0              10.20969       112.22711    
     16500   2.9772674      5.5034611      0              9.9671815      110.28091    
     16750   3.0227683      5.5467739      0              10.078712      110.89425    
     17000   3.0504645      5.5955238      0              10.168986      111.14321    
     17250   2.989654       5.4719995      0              9.9542909      109.76465    
     17500   3.0183463      5.6757732      0              10.201082      112.25197    
     17750   2.9442376      5.4782107      0              9.8924106      109.9656     
     18000   3.0723227      5.5380566      0              10.14429       110.78615    
     18250   2.9798731      5.2984606      0              9.7660876      107.45334    
     18500   3.0071793      5.52144        0              10.030006      110.32515    
     18750   2.9871939      5.5694863      0              10.048089      111.07685    
     19000   2.9761029      5.4533503      0              9.9153249      109.62667    
     19250   3.0318313      5.4983918      0              10.043918      110.17825    
     19500   3.0578453      5.395386       0              9.9799143      108.81583    
     19750   3.0010995      5.4715585      0              9.9710097      109.82474    
     20000   3.0672891      5.4992206      0              10.097908      110.25706    
     20250   3.0006233      5.4796078      0              9.9783451      109.90727    
     20500   3.0126281      5.5561087      0              10.072844      110.65231    
     20750   3.0071863      5.6312489      0              10.139826      111.91671    
     21000   2.993848       5.4367182      0              9.9252975      109.38198    
     21250   3.1133429      5.5772403      0              10.244974      111.02283    
     21500   2.9755163      5.5650099      0              10.026105      110.66924    
     21750   2.9476772      5.5567941      0              9.9761509      110.86907    
     22000   3.0463423      5.5602683      0              10.127551      110.76303    
     22250   2.9922125      5.5146247      0              10.000752      110.27515    
     22500   3.0489915      5.6318102      0              10.203064      111.66315    
     22750   2.9565535      5.5825581      0              10.015223      110.80508    
     23000   3.0665322      5.4394121      0              10.036964      109.60397    
     23250   3.1294859      5.5215478      0              10.213484      110.79995    
     23500   2.998822       5.481942       0              9.9779785      109.83482    
     23750   3.0677875      5.6017866      0              10.201221      111.23652    
     24000   3.0339052      5.3423744      0              9.8910101      108.42965    
     24250   2.9898859      5.6789054      0              10.161544      112.18703    
     24500   3.0118312      5.5286432      0              10.044184      110.50975    
     24750   3.008158       5.4867161      0              9.9967498      109.95546    
     25000   2.9851363      5.6115498      0              10.087068      111.4094     
     25250   2.9781909      5.5668713      0              10.031976      110.91471    
     25500   3.0222618      5.446672       0              9.9778511      109.65204    
     25750   3.0436281      5.5226839      0              10.085897      110.36039    
     26000   2.9844924      5.4712024      0              9.9457551      109.88099    
     26250   2.9490549      5.4846869      0              9.9061093      109.75388    
     26500   3.0471124      5.5327434      0              10.10118       110.31622    
     26750   2.914159       5.455034       0              9.8241382      109.83884    
     27000   3.0531763      5.5518335      0              10.129362      110.834      
     27250   2.9373065      5.5006249      0              9.9044334      109.86351    
     27500   3.1063373      5.5423676      0              10.199598      110.87339    
     27750   3.0323477      5.464032       0              10.010333      109.99207    
     28000   3.0251684      5.4997929      0              10.03533       110.49567    
     28250   3.1633189      5.4215193      0              10.164181      109.45796    
     28500   3.002538       5.4616865      0              9.9632944      109.98608    
     28750   3.0707104      5.7097861      0              10.313603      112.61099    
     29000   2.9857048      5.5081085      0              9.9844789      110.35561    
     29250   2.9983975      5.582439       0              10.077839      111.06761    
     29500   2.9859825      5.542606       0              10.019393      110.45292    
     29750   3.0145035      5.4639643      0              9.9835116      109.59236    
     30000   3.0079403      5.5925862      0              10.102294      111.1007     
     30250   2.9990088      5.4138424      0              9.910159       109.03659    
     30500   3.0099488      5.6127842      0              10.125503      111.55744    
     30750   2.9301486      5.5523459      0              9.9454227      110.29313    
     31000   2.9599152      5.5630545      0              10.00076       110.79721    
     31250   3.0021365      5.5779404      0              10.078946      110.88922    
     31500   2.974866       5.4168797      0              9.8769999      109.05155    
     31750   3.040731       5.584361       0              10.14323       111.42179    
     32000   2.9662306      5.5369235      0              9.9840968      110.44532    
     32250   2.9678276      5.6055389      0              10.055107      111.23076    
     32500   3.0565753      5.578036       0              10.16066       111.27477    
     32750   2.9283308      5.5208087      0              9.9111602      110.50727    
     33000   3.0750865      5.6081341      0              10.218512      111.38283    
     33250   2.9560132      5.5960825      0              10.027937      111.1513     
     33500   2.9211614      5.5938704      0              9.973473       111.22418    
     33750   3.0980308      5.4911945      0              10.135972      110.14212    
     34000   2.9766363      5.5266924      0              9.9894668      110.53073    
     34250   3.062209       5.5951843      0              10.186255      111.40486    
     34500   2.9420033      5.633803       0              10.044653      111.47498    
     34750   2.9704151      5.5604504      0              10.013897      110.58001    
     35000   3.0577935      5.6520219      0              10.236472      112.18502    
     35250   3.0008998      5.443918       0              9.9430698      109.97411    
     35500   3.1394669      5.4923872      0              10.199288      110.46082    
     35750   3.0233765      5.35763        0              9.8904805      108.71116    
     36000   3.0204944      5.615045       0              10.143574      111.62734    
     36250   2.9895127      5.4604538      0              9.9425332      109.6667     
     36500   2.9772986      5.4217658      0              9.885533       109.54445    
     36750   3.0900492      5.5208684      0              10.153679      110.43345    
     37000   2.9698737      5.4566008      0              9.9092361      109.53741    
     37250   2.9384407      5.8078179      0              10.213327      113.24926    
     37500   3.0007408      5.4955179      0              9.9944312      110.25974    
     37750   2.9621451      5.6614005      0              10.102449      111.90253    
     38000   3.0665425      5.492016       0              10.089584      110.20979    
     38250   2.9471752      5.5706311      0              9.9892354      110.81354    
     38500   3.1041818      5.6134704      0              10.267469      111.96969    
     38750   3.0358837      5.4468352      0              9.9984371      109.55444    
     39000   3.0263163      5.5460205      0              10.083278      110.88611    
     39250   3.0193755      5.5467489      0              10.073601      110.72468    
     39500   3.0461445      5.4263028      0              9.9932886      108.96207    
     39750   3.0746035      5.7210579      0              10.330711      112.91587    
     40000   3.0378656      5.4496509      0              10.004224      109.861      
     40250   2.963212       5.5736138      0              10.016262      111.32548    
     40500   3.0006693      5.6236725      0              10.122479      111.38562    
     40750   2.9543438      5.5524741      0              9.981826       110.66045    
     41000   3.05215        5.5476357      0              10.123625      110.6974     
     41250   2.9559971      5.4813645      0              9.9131951      109.87749    
     41500   3.0945035      5.4485412      0              10.08803       109.79608    
     41750   3.001091       5.5129268      0              10.012365      110.38703    
     42000   3.0187188      5.5084029      0              10.03427       110.29875    
     42250   3.0508756      5.583831       0              10.15791       111.07956    
     42500   2.9425545      5.4848247      0              9.8965013      109.78736    
     42750   3.1264834      5.5369228      0              10.224358      110.90314    
     43000   2.9784342      5.5166909      0              9.9821608      110.31112    
     43250   3.0136141      5.5872341      0              10.105448      111.01359    
     43500   3.022636       5.5432033      0              10.074943      110.85443    
     43750   3.004792       5.4933013      0              9.9982885      110.09885    
     44000   3.1332414      5.6020621      0              10.299629      111.26248    
     44250   2.9883731      5.5221945      0              10.002565      110.25781    
     44500   2.9766536      5.6097968      0              10.072597      111.08627    
     44750   3.0258285      5.5557059      0              10.092233      110.58923    
     45000   3.019243       5.4625325      0              9.9891856      110.02377    
     45250   3.0180622      5.7569848      0              10.281868      113.01559    
     45500   2.9149875      5.5804113      0              9.9507575      111.22666    
     45750   3.0383079      5.5629242      0              10.118161      110.92221    
     46000   3.0056276      5.4252825      0              9.9315225      109.48182    
     46250   3.0574535      5.4765627      0              10.060504      109.94556    
     46500   2.9442364      5.5746251      0              9.9888233      110.95006    
     46750   3.0410661      5.4194191      0              9.9787909      109.56569    
     47000   3.0144859      5.5446195      0              10.06414       110.58455    
     47250   2.9904662      5.527619       0              10.011128      110.34276    
     47500   2.9493291      5.6230647      0              10.044898      111.48324    
     47750   3.0234842      5.6055489      0              10.138561      111.28945    
     48000   2.9840779      5.409925       0              9.8838563      109.47022    
     48250   3.0977305      5.5461753      0              10.190502      110.89404    
     48500   3.0036291      5.4426906      0              9.9459343      109.29899    
     48750   3.071989       5.6188086      0              10.224542      111.68674    
     49000   3.0089258      5.4865696      0              9.9977544      110.16784    
     49250   2.9961461      5.5556006      0              10.047625      110.75785    
     49500   2.9966137      5.7218998      0              10.214626      112.97842    
     49750   3.0255188      5.4499157      0              9.9859779      109.4634     
     50000   2.9595638      5.5932444      0              10.030422      111.33422    
Loop time of 8.19026 on 4 procs for 50000 steps with 2048 atoms

Performance: 2637279.887 tau/day, 6104.815 timesteps/s, 12.503 Matom-step/s
99.5% CPU use with 4 MPI tasks x 1 OpenMP threads

MPI task timing breakdown:
Section |  min time  |  avg time  |  max time  |%varavg| %total
---------------------------------------------------------------
Pair    | 2.0948     | 2.286      | 2.8219     |  20.5 | 27.91
Neigh   | 1.7791     | 2.083      | 2.5224     |  18.8 | 25.43
Comm    | 2.0654     | 2.9543     | 3.4412     |  30.7 | 36.07
Output  | 0.0055222  | 0.0071688  | 0.01149    |   3.0 |  0.09
Modify  | 0.49639    | 0.59169    | 0.72903    |  11.1 |  7.22
Other   |            | 0.2681     |            |       |  3.27

Nlocal:            512 ave         519 max         498 min
Histogram: 1 0 0 0 0 0 0 1 0 2
Nghost:            643 ave         658 max         637 min
Histogram: 3 0 0 0 0 0 0 0 0 1
Neighs:        3130.25 ave        3218 max        3010 min
Histogram: 1 0 0 0 1 0 0 0 1 1

Total # of neighbors = 12521
Ave neighs/atom = 6.1137695
Neighbor list builds = 10337
Dangerous builds = 0

unfix 1
dump           1 all atom ${run_steps} 3dWCA_T${final_temperature}_d${density}_N${run_steps}.lammpstrj
dump           1 all atom 100000 3dWCA_T${final_temperature}_d${density}_N${run_steps}.lammpstrj
dump           1 all atom 100000 3dWCA_T0.1_d${density}_N${run_steps}.lammpstrj
dump           1 all atom 100000 3dWCA_T0.1_d1.5_N${run_steps}.lammpstrj
dump           1 all atom 100000 3dWCA_T0.1_d1.5_N100000.lammpstrj
dump           2 all dcd ${thermo_time} 3dWCA_T${final_temperature}_d${density}_N${run_steps}.dcd
dump           2 all dcd 250 3dWCA_T${final_temperature}_d${density}_N${run_steps}.dcd
dump           2 all dcd 250 3dWCA_T0.1_d${density}_N${run_steps}.dcd
dump           2 all dcd 250 3dWCA_T0.1_d1.5_N${run_steps}.dcd
dump           2 all dcd 250 3dWCA_T0.1_d1.5_N100000.dcd
fix 1 all nvt temp ${initial_temperature} ${final_temperature} ${tau}
fix 1 all nvt temp 3 ${final_temperature} ${tau}
fix 1 all nvt temp 3 0.1 ${tau}
fix 1 all nvt temp 3 0.1 0.5

run ${run_steps}
run 100000
Generated 0 of 0 mixed pair_coeff terms from geometric mixing rule
Per MPI rank memory allocation (min/avg/max) = 3.169 | 3.169 | 3.169 Mbytes
   Step          Temp          E_pair         E_mol          TotEng         Press     
     50000   2.9595638      5.5932444      0              10.030422      111.33422    
     50250   2.9219786      5.5339585      0              9.9147862      110.24731    
     50500   3.0142502      5.4942885      0              10.013456      109.90506    
     50750   2.9838672      5.5258976      0              9.999513       110.65988    
     51000   2.9457958      5.4978252      0              9.9143613      109.91893    
     51250   3.0117535      5.4428849      0              9.9583092      109.71448    
     51500   2.9877988      5.3248887      0              9.8043986      108.07275    
     51750   2.9638779      5.5362076      0              9.9798537      110.33742    
     52000   2.9141847      5.5143111      0              9.8834538      110.16846    
     52250   2.9414175      5.4173025      0              9.8272744      108.73191    
     52500   2.9616514      5.3995199      0              9.8398278      108.91269    
     52750   2.8763148      5.3842103      0              9.6965758      108.90017    
     53000   2.9512195      5.4512585      0              9.8759262      109.49168    
     53250   2.8395751      5.4747864      0              9.7320692      109.57734    
     53500   2.8631509      5.4402328      0              9.7328621      109.33795    
     53750   2.9355098      5.4968113      0              9.8979259      110.16187    
     54000   2.8673178      5.3010803      0              9.5999569      107.81727    
     54250   2.9531971      5.4342057      0              9.8618384      109.41497    
     54500   2.8523705      5.3153826      0              9.5918493      107.54909    
     54750   2.8705421      5.3747825      0              9.6784933      108.442      
     55000   2.8943349      5.2395506      0              9.5789332      107.31325    
     55250   2.8363436      5.3111191      0              9.5635571      107.74164    
     55500   2.8478115      5.3295495      0              9.5991809      107.9213     
     55750   2.9125685      5.1273401      0              9.4940596      105.87299    
     56000   2.8557798      5.3096413      0              9.5912194      107.94463    
     56250   2.7542731      5.2925613      0              9.4219536      107.51382    
     56500   2.9058094      5.2204657      0              9.5770515      107.06159    
     56750   2.7032975      5.2603836      0              9.3133499      106.99501    
     57000   2.7845111      5.3730224      0              9.5477496      108.43694    
     57250   2.8281049      5.1794728      0              9.4195588      105.94485    
     57500   2.7630753      5.2144571      0              9.3570463      106.68065    
     57750   2.7247439      5.1604601      0              9.2455802      105.91012    
     58000   2.7572239      5.307395       0              9.4412114      107.57278    
     58250   2.6919788      5.2368035      0              9.2728001      106.55913    
     58500   2.7529197      5.1987851      0              9.3261483      106.57675    
     58750   2.7974573      5.0992531      0              9.2933901      105.55208    
     59000   2.7208526      5.0947568      0              9.1740429      105.12588    
     59250   2.7263477      5.2635577      0              9.3510825      107.07562    
     59500   2.7021029      5.1393566      0              9.1905319      105.66209    
     59750   2.8004087      5.0274898      0              9.2260518      104.70693    
     60000   2.7370768      5.180121       0              9.2837315      106.10395    
     60250   2.6779964      5.0578884      0              9.0729215      104.57634    
     60500   2.7687945      5.1908137      0              9.3419775      105.93656    
     60750   2.6855452      5.107226       0              9.1335769      105.06148    
     61000   2.6282222      5.0391589      0              8.9795672      104.11135    
     61250   2.6494037      5.1574935      0              9.1296585      105.3371     
     61500   2.6847192      4.9923138      0              9.0174263      103.81798    
     61750   2.671252       4.9935189      0              8.9984404      104.00439    
     62000   2.6804376      5.0762124      0              9.0949056      105.15209    
     62250   2.6032103      4.97011        0              8.8730188      103.40659    
     62500   2.722456       5.0015129      0              9.0832028      103.99689    
     62750   2.6167714      5.0292551      0              8.9524956      103.93362    
     63000   2.5766073      4.942462       0              8.8054858      103.31516    
     63250   2.6509749      4.9736265      0              8.9481473      103.52893    
     63500   2.6222571      4.9457408      0              8.877206       103.39128    
     63750   2.6006253      4.8994238      0              8.798457       102.68282    
     64000   2.6236453      4.9942796      0              8.9278259      104.0665     
     64250   2.5483953      4.8696377      0              8.6903641      102.00166    
     64500   2.629709       4.9620404      0              8.9046778      103.54608    
     64750   2.6002728      4.906529       0              8.8050337      102.75483    
     65000   2.492987       4.928535       0              8.6661897      102.64929    
     65250   2.5606294      5.0454485      0              8.8845172      104.57647    
     65500   2.4599805      4.9665464      0              8.6547154      103.31723    
     65750   2.5605562      4.9464001      0              8.7853591      103.27108    
     66000   2.5816001      4.8890334      0              8.7595427      102.6199     
     66250   2.5300084      4.8011147      0              8.5942743      101.39794    
     66500   2.5518321      4.8834286      0              8.7093078      102.47192    
     66750   2.5460885      4.7501124      0              8.5673803      100.92794    
     67000   2.5079442      4.8338291      0              8.5939085      101.82465    
     67250   2.5914471      4.9094682      0              8.7947409      102.67451    
     67500   2.4599419      4.7971528      0              8.4852639      101.46021    
     67750   2.5121175      4.8549326      0              8.6212689      101.88004    
     68000   2.4954582      4.714027       0              8.4553866      100.50287    
     68250   2.4619149      4.8092779      0              8.5003471      101.64252    
     68500   2.4748482      4.8607206      0              8.5711803      102.17956    
     68750   2.4103498      4.7665875      0              8.3803468      100.9261     
     69000   2.5072197      4.8299851      0              8.5889784      101.68796    
     69250   2.4127923      4.6996819      0              8.3171031      100.00084    
     69500   2.5234972      4.721059       0              8.5044565      100.53639    
     69750   2.3715201      4.6916661      0              8.2472093      99.90332     
     70000   2.4596847      4.7555351      0              8.4432606      101.01329    
     70250   2.3900819      4.6031537      0              8.1865259      98.900454    
     70500   2.4443217      4.7165879      0              8.3812801      100.36138    
     70750   2.3526639      4.6008467      0              8.1281194      98.814206    
     71000   2.3986527      4.7149692      0              8.3111915      100.27224    
     71250   2.3543851      4.5473617      0              8.077215       98.104965    
     71500   2.408736       4.6304683      0              8.2418081      99.429354    
     71750   2.3332924      4.6334311      0              8.1316608      99.235268    
     72000   2.2822301      4.6654716      0              8.0871451      99.42629     
     72250   2.4153467      4.5749859      0              8.196237       98.791424    
     72500   2.297797       4.547062       0              7.9920746      98.130121    
     72750   2.3237202      4.645467       0              8.1293453      99.687402    
     73000   2.2328948      4.5494616      0              7.8971683      98.302901    
     73250   2.3567973      4.515284       0              8.0487537      97.998592    
     73500   2.3120333      4.5583555      0              8.024712       98.340415    
     73750   2.2540373      4.5260263      0              7.9054314      97.992208    
     74000   2.3347375      4.5152494      0              8.0156456      97.774961    
     74250   2.2160639      4.4870103      0              7.809483       97.126625    
     74500   2.274439       4.5828696      0              7.9928622      98.607047    
     74750   2.2343092      4.5530451      0              7.9028725      97.974982    
     75000   2.2018712      4.3408492      0              7.6420433      95.509569    
     75250   2.3442456      4.4090554      0              7.9237068      96.439934    
     75500   2.2912946      4.3488268      0              7.7840905      95.683184    
     75750   2.2550141      4.5380731      0              7.9189427      98.077309    
     76000   2.269766       4.4098192      0              7.8128057      96.729843    
     76250   2.2408831      4.4212694      0              7.7809528      96.572929    
     76500   2.3321556      4.4924319      0              7.9889572      97.725418    
     76750   2.21783        4.4126403      0              7.7377608      96.749988    
     77000   2.2289468      4.3558468      0              7.6976344      95.777569    
     77250   2.2598051      4.4397111      0              7.8277636      96.949395    
     77500   2.1825915      4.346556       0              7.6188447      95.741742    
     77750   2.2287415      4.4733896      0              7.8148695      97.125401    
     78000   2.1735002      4.4226439      0              7.6813023      96.534884    
     78250   2.1395145      4.3518345      0              7.5595391      95.696282    
     78500   2.2489631      4.3589922      0              7.7307897      95.520757    
     78750   2.1514583      4.2879534      0              7.513565       94.945495    
     79000   2.1541546      4.4037818      0              7.6334359      96.376132    
     79250   2.1520679      4.2941385      0              7.520664       94.808949    
     79500   2.1466146      4.2902649      0              7.5086146      95.065213    
     79750   2.1808855      4.3188765      0              7.5886075      95.009406    
     80000   2.0966147      4.2917878      0              7.4351742      94.834204    
     80250   2.1735935      4.3135254      0              7.5723236      95.049733    
     80500   2.1152751      4.1804786      0              7.3518419      93.481284    
     80750   2.1418227      4.3341175      0              7.5452827      95.262585    
     81000   2.0774921      4.1840417      0              7.2987583      93.470041    
     81250   2.1446194      4.2494942      0              7.4648525      94.165931    
     81500   2.0915326      4.1127483      0              7.2485153      92.621747    
     81750   2.1245897      4.2151938      0              7.4005222      94.297941    
     82000   2.0979723      4.0470074      0              7.1924293      92.045388    
     82250   2.0892774      4.2149864      0              7.3473723      94.044102    
     82500   2.01356        4.1290634      0              7.1479286      92.655089    
     82750   2.0489786      4.217286       0              7.2892532      93.922408    
     83000   2.0145899      4.0831529      0              7.1035622      92.17161     
     83250   2.0245631      4.1918061      0              7.2271679      93.778785    
     83500   1.9889797      4.1038016      0              7.0858144      92.50066     
     83750   2.0267387      4.1169031      0              7.1555268      92.575374    
     84000   2.0181523      4.088373       0              7.1141233      92.348383    
     84250   1.9683677      4.1180451      0              7.069155       92.577085    
     84500   1.9893312      4.1410585      0              7.1235983      93.002659    
     84750   1.9683574      4.0292273      0              6.9803217      91.560317    
     85000   2.0558405      4.0154925      0              7.0977475      91.572484    
     85250   1.9648818      3.9554404      0              6.901324       90.732703    
     85500   1.9675144      4.1068855      0              7.0567161      92.599915    
     85750   1.9538667      3.9168918      0              6.8462608      90.039136    
     86000   2.0175103      3.9799012      0              7.0046889      91.079657    
     86250   1.951831       3.9607712      0              6.8870882      90.945061    
     86500   1.9188191      3.9217894      0              6.7986126      90.161112    
     86750   1.9381953      4.0501684      0              6.9560418      91.663375    
     87000   1.9313693      3.869625       0              6.7652645      89.815888    
     87250   1.9651428      3.9141444      0              6.8604192      90.419526    
     87500   1.9190692      3.8929695      0              6.7701678      89.809042    
     87750   1.904077       3.8920673      0              6.7467883      89.705667    
     88000   1.8589809      4.0318705      0              6.8189803      91.045745    
     88250   1.8538135      3.8657895      0              6.645152       89.526904    
     88500   1.8866899      3.931361       0              6.760014       90.174348    
     88750   1.8264586      3.8482185      0              6.5865687      89.379323    
     89000   1.8325448      3.9460094      0              6.6934843      90.233336    
     89250   1.8407747      3.913312       0              6.6731258      89.956516    
     89500   1.8035971      3.822378       0              6.5264526      88.915362    
     89750   1.8576146      3.8798134      0              6.6648747      89.817533    
     90000   1.8062096      3.7961093      0              6.5041008      88.485688    
     90250   1.8396246      3.8593455      0              6.617435       89.574345    
     90500   1.8230208      3.8497153      0              6.5829113      89.340349    
     90750   1.7893342      3.8179168      0              6.5006076      88.730238    
     91000   1.7984167      3.7659031      0              6.4622109      88.149124    
     91250   1.8577903      3.778966       0              6.5642908      88.176714    
     91500   1.8219518      3.6876245      0              6.4192177      86.980604    
     91750   1.7949695      3.8404517      0              6.5315912      89.138953    
     92000   1.7410469      3.7550086      0              6.3653038      87.956506    
     92250   1.7790749      3.818656       0              6.4859653      88.582647    
     92500   1.8127344      3.6706137      0              6.3883877      86.805837    
     92750   1.769305       3.7098131      0              6.3624748      87.567553    
     93000   1.6807345      3.7710729      0              6.2909437      88.074152    
     93250   1.7783436      3.6944607      0              6.3606736      87.15696     
     93500   1.727398       3.7000472      0              6.289879       87.205528    
     93750   1.6940391      3.7452865      0              6.2851044      87.634672    
     94000   1.7030636      3.7795895      0              6.3329376      87.984294    
     94250   1.6754724      3.6689737      0              6.1809552      86.880804    
     94500   1.7778017      3.68721        0              6.3526105      87.058344    
     94750   1.6899086      3.6382536      0              6.1718788      86.531903    
     95000   1.6975806      3.6428476      0              6.1879752      86.467841    
     95250   1.65351        3.5927979      0              6.0718518      85.690172    
     95500   1.7046769      3.6437755      0              6.1995423      86.445507    
     95750   1.6897497      3.5642924      0              6.0976794      85.477945    
     96000   1.6810354      3.5610743      0              6.0813962      85.571373    
     96250   1.6643203      3.6017561      0              6.0970176      85.598767    
     96500   1.6415726      3.5119414      0              5.973098       84.721293    
     96750   1.7225236      3.5399289      0              6.1224527      85.267823    
     97000   1.6472572      3.5358588      0              6.0055381      85.192733    
     97250   1.6445829      3.4847613      0              5.9504311      84.272334    
     97500   1.6127729      3.4316916      0              5.8496697      83.870854    
     97750   1.6515474      3.5110261      0              5.9871375      84.956195    
     98000   1.5970064      3.467301       0              5.8616409      84.205406    
     98250   1.6030205      3.489693       0              5.8930496      84.395995    
     98500   1.5855502      3.449071       0              5.8262351      83.868131    
     98750   1.614325       3.4248848      0              5.8451899      83.622804    
     99000   1.5880648      3.4796304      0              5.8605645      84.119886    
     99250   1.5524032      3.4549222      0              5.78239        84.142949    
     99500   1.5899778      3.4108296      0              5.7946317      83.459723    
     99750   1.5416738      3.4128313      0              5.7242128      83.382974    
    100000   1.4945712      3.5013489      0              5.7421111      84.492879    
    100250   1.525272       3.4620325      0              5.7488235      83.679625    
    100500   1.560482       3.3386368      0              5.6782169      82.199093    
    100750   1.5970732      3.3686077      0              5.7630478      82.60975     
    101000   1.5061227      3.3393935      0              5.5974745      82.383589    
    101250   1.5495862      3.4130624      0              5.7363067      83.173556    
    101500   1.4870701      3.3508227      0              5.5803386      82.579344    
    101750   1.5217556      3.3146064      0              5.5961253      82.00885     
    102000   1.4943067      3.3281286      0              5.5684942      82.318377    
    102250   1.4863246      3.2779317      0              5.50633        81.758788    
    102500   1.4933156      3.3823657      0              5.6212453      82.770957    
    102750   1.4804026      3.2559822      0              5.4755018      81.406245    
    103000   1.4631009      3.2670215      0              5.4606012      81.524886    
    103250   1.4984021      3.2672347      0              5.5137404      81.446388    
    103500   1.4405629      3.2559646      0              5.4157538      81.160523    
    103750   1.4421732      3.2138575      0              5.3760611      80.777921    
    104000   1.4456052      3.2008432      0              5.3681922      80.655426    
    104250   1.4689198      3.2263494      0              5.4286532      80.879965    
    104500   1.4007124      3.2148933      0              5.3149359      80.635277    
    104750   1.4493751      3.2497817      0              5.4227827      81.396802    
    105000   1.4070425      3.1547489      0              5.2642821      79.99578     
    105250   1.4457324      3.1371646      0              5.3047043      79.740089    
    105500   1.3940932      3.1855658      0              5.2756846      80.054358    
    105750   1.4080816      3.1017908      0              5.2128818      79.336626    
    106000   1.3977341      3.2010366      0              5.2966141      80.536148    
    106250   1.3420312      3.1396372      0              5.151701       79.825676    
    106500   1.3759437      3.1714959      0              5.2344036      80.083479    
    106750   1.3625084      3.1052173      0              5.147982       79.107298    
    107000   1.3390012      3.0883204      0              5.0958415      78.994431    
    107250   1.3252734      3.1246975      0              5.111637       79.455692    
    107500   1.3467258      3.0497301      0              5.0688323      78.500458    
    107750   1.3218261      3.0498484      0              5.0316195      78.50575     
    108000   1.3397598      3.1113099      0              5.1199683      79.326692    
    108250   1.3295022      2.9931234      0              4.9864029      77.658       
    108500   1.288296       3.0663863      0              4.9978867      78.569496    
    108750   1.3433641      2.978974       0              4.9930362      77.502438    
    109000   1.263128       3.0335565      0              4.9273233      78.149993    
    109250   1.322732       3.0531716      0              5.0363008      78.48171     
    109500   1.2370058      3.0383097      0              4.8929123      78.229099    
    109750   1.2678581      2.948098       0              4.8489565      77.160484    
    110000   1.2717407      2.9371619      0              4.8438414      76.956403    
    110250   1.2875698      2.9585453      0              4.888957       77.341358    
    110500   1.247218       2.906033       0              4.7759465      76.60933     
    110750   1.2792269      2.9864159      0              4.9043194      77.42089     
    111000   1.2613296      2.8648071      0              4.7558777      75.966751    
    111250   1.2163041      2.9000055      0              4.7235708      76.386941    
    111500   1.2508253      2.9251817      0              4.8005035      76.776119    
    111750   1.1917019      2.8821593      0              4.6688394      76.171686    
    112000   1.2219505      2.9085448      0              4.7405756      76.430341    
    112250   1.1893623      2.8747988      0              4.6579711      75.982052    
    112500   1.2047876      2.8088403      0              4.6151392      75.31027     
    112750   1.1786877      2.8933418      0              4.66051        76.180045    
    113000   1.1802043      2.773924       0              4.543366       74.770061    
    113250   1.2063457      2.828635       0              4.6372699      75.390466    
    113500   1.1871689      2.8343255      0              4.6142094      75.308913    
    113750   1.1734892      2.728555       0              4.4879293      74.236581    
    114000   1.1706564      2.7830516      0              4.5381788      74.875447    
    114250   1.1446988      2.7688767      0              4.4850865      74.741307    
    114500   1.1249557      2.759553       0              4.4461626      74.362426    
    114750   1.0976594      2.7245987      0              4.3702838      73.923813    
    115000   1.147335       2.7436119      0              4.463774       74.234905    
    115250   1.1028506      2.7359971      0              4.3894652      74.016266    
    115500   1.0819389      2.7409825      0              4.3630985      74.230003    
    115750   1.060879       2.6720147      0              4.2625562      73.224883    
    116000   1.1009824      2.7155575      0              4.3662247      73.878308    
    116250   1.0734336      2.6638988      0              4.2732629      73.222269    
    116500   1.0908242      2.6711138      0              4.3065511      73.637045    
    116750   1.1151031      2.6278746      0              4.2997125      72.866192    
    117000   1.0440127      2.6417501      0              4.2070044      72.779188    
    117250   1.0350443      2.6518192      0              4.2036275      72.822104    
    117500   1.0463181      2.6548402      0              4.2235509      73.048849    
    117750   1.0474236      2.5768315      0              4.1471997      71.976133    
    118000   1.069052       2.6340391      0              4.2368341      72.749474    
    118250   1.0304693      2.578862       0              4.1238112      71.954952    
    118500   1.0220711      2.5351782      0              4.0675363      71.226912    
    118750   1.0178245      2.543034       0              4.0690253      71.551451    
    119000   1.0110181      2.5744171      0              4.0902037      71.805002    
    119250   0.96341453     2.5700511      0              4.0144672      71.650591    
    119500   1.0120906      2.5783461      0              4.0957407      71.955559    
    119750   0.96440406     2.5354372      0              3.981337       71.350147    
    120000   0.96725698     2.4880467      0              3.9382237      70.846896    
    120250   0.96665494     2.4938466      0              3.943121       70.962978    
    120500   0.95711861     2.4926767      0              3.9276536      70.830288    
    120750   0.94770418     2.4590427      0              3.8799049      70.212218    
    121000   0.98895606     2.5007747      0              3.9834844      71.005608    
    121250   0.96202612     2.424314       0              3.8666486      69.725229    
    121500   0.92008943     2.4204787      0              3.7999389      69.612557    
    121750   0.94058018     2.470352       0              3.8805334      70.301621    
    122000   0.90511034     2.4273726      0              3.7843751      69.765897    
    122250   0.87951864     2.4175044      0              3.7361382      69.57668     
    122500   0.90563128     2.3357549      0              3.6935386      68.50332     
    122750   0.89908129     2.404281       0              3.7522444      69.480718    
    123000   0.86223067     2.3965565      0              3.689271       69.359966    
    123250   0.8770249      2.3443647      0              3.6592598      68.88596     
    123500   0.86193184     2.3313127      0              3.6235792      68.521902    
    123750   0.87895067     2.3428918      0              3.6606741      68.653323    
    124000   0.85059783     2.3224218      0              3.5976955      68.333737    
    124250   0.84938896     2.2884049      0              3.5618663      67.872568    
    124500   0.84906914     2.2656396      0              3.5386214      67.635429    
    124750   0.85664627     2.2763409      0              3.5606829      67.652251    
    125000   0.81710404     2.2880901      0              3.5131477      67.677149    
    125250   0.81476551     2.2468119      0              3.4683634      67.280566    
    125500   0.81988629     2.2402534      0              3.4694824      67.103044    
    125750   0.80003573     2.2711163      0              3.4705839      67.534844    
    126000   0.78301485     2.2410409      0              3.4149897      67.181447    
    126250   0.77937958     2.1742137      0              3.3427122      66.243545    
    126500   0.79796889     2.2104086      0              3.4067775      66.757556    
    126750   0.78643864     2.1821271      0              3.361209       66.391691    
    127000   0.77694747     2.1689739      0              3.333826       66.293557    
    127250   0.74389642     2.1986316      0              3.3139314      66.520003    
    127500   0.74787889     2.1709995      0              3.29227        66.145374    
    127750   0.74324032     2.1094437      0              3.2237598      65.307486    
    128000   0.73510259     2.1261651      0              3.2282806      65.509753    
    128250   0.74299761     2.1265196      0              3.2404718      65.572945    
    128500   0.73799109     2.0878299      0              3.194276       65.043371    
    128750   0.70116472     2.0996562      0              3.1508898      65.176566    
    129000   0.7068156      2.099218       0              3.1589237      65.192638    
    129250   0.71294033     2.0988243      0              3.1677127      65.071921    
    129500   0.70472791     2.0423471      0              3.0989228      64.42375     
    129750   0.66970663     2.0455617      0              3.0496311      64.364215    
    130000   0.6691813      2.0587357      0              3.0620175      64.699831    
    130250   0.69187827     2.0174029      0              3.0547135      64.005988    
    130500   0.67442904     2.0066652      0              3.0178148      63.896529    
    130750   0.64896376     2.0090541      0              2.9820244      63.825223    
    131000   0.64941776     1.9783961      0              2.9520471      63.524686    
    131250   0.65652288     1.9808161      0              2.9651196      63.434603    
    131500   0.64591646     1.9458301      0              2.9142317      62.995626    
    131750   0.63426327     1.9675666      0              2.918497       63.314773    
    132000   0.61986858     1.9342131      0              2.863562       62.920383    
    132250   0.62877659     1.9801875      0              2.9228919      63.463108    
    132500   0.60263525     1.9428634      0              2.8463749      62.944415    
    132750   0.58930431     1.9098531      0              2.7933779      62.482958    
    133000   0.60001759     1.8903712      0              2.7899581      62.177028    
    133250   0.5855108      1.879507       0              2.7573443      62.067027    
    133500   0.58550064     1.8590346      0              2.7368568      61.816267    
    133750   0.60592109     1.8512442      0              2.759682       61.756872    
    134000   0.55180863     1.8689674      0              2.6962762      61.908344    
    134250   0.56082097     1.817102       0              2.6579227      61.255206    
    134500   0.54778388     1.8014404      0              2.622715       61.028755    
    134750   0.53960631     1.8486856      0              2.6576999      61.541106    
    135000   0.53694981     1.8070145      0              2.612046       61.036304    
    135250   0.52322106     1.7926465      0              2.5770949      60.885162    
    135500   0.50436875     1.7674649      0              2.5236486      60.545515    
    135750   0.52635341     1.7694902      0              2.5586348      60.500897    
    136000   0.50463965     1.7556688      0              2.5122587      60.30368     
    136250   0.4998018      1.7361638      0              2.4855004      60.011286    
    136500   0.4966489      1.7120828      0              2.4566924      59.758237    
    136750   0.4931297      1.7420586      0              2.481392       60.116441    
    137000   0.48792104     1.6907227      0              2.4222469      59.44499     
    137250   0.47068311     1.6830329      0              2.3887128      59.401806    
    137500   0.4496571      1.6794604      0              2.3536167      59.260939    
    137750   0.45413024     1.6955039      0              2.3763666      59.503303    
    138000   0.44565399     1.6650561      0              2.3332107      59.052739    
    138250   0.44224387     1.6464912      0              2.3095331      58.789276    
    138500   0.42048626     1.6230511      0              2.2534725      58.562115    
    138750   0.42773255     1.644856       0              2.2861415      58.761545    
    139000   0.41932502     1.610694       0              2.2393744      58.29057     
    139250   0.39889439     1.6098524      0              2.2079018      58.323353    
    139500   0.40036549     1.5924203      0              2.1926753      57.969161    
    139750   0.40253        1.5983207      0              2.2018209      58.136427    
    140000   0.39386035     1.5578003      0              2.1483023      57.671005    
    140250   0.39101687     1.5325668      0              2.1188057      57.288128    
    140500   0.36850375     1.5290044      0              2.0814901      57.134517    
    140750   0.37117622     1.5361375      0              2.09263        57.237448    
    141000   0.36070613     1.5237082      0              2.0645032      57.144565    
    141250   0.35163341     1.5122216      0              2.0394142      56.954458    
    141500   0.35191828     1.4910158      0              2.0186355      56.655198    
    141750   0.33921295     1.4844331      0              1.9930041      56.578535    
    142000   0.33246184     1.474607       0              1.9730562      56.476826    
    142250   0.31920459     1.4710108      0              1.9495839      56.428967    
    142500   0.31796176     1.4475647      0              1.9242744      56.103364    
    142750   0.31745925     1.4283535      0              1.9043098      55.889616    
    143000   0.31058805     1.4155458      0              1.8812004      55.74959     
    143250   0.29846589     1.4092383      0              1.8567185      55.646718    
    143500   0.28886641     1.4032833      0              1.8363714      55.548005    
    143750   0.29150763     1.3762744      0              1.8133223      55.185145    
    144000   0.28157504     1.367433       0              1.7895893      55.142099    
    144250   0.26963335     1.3630008      0              1.7672533      55.028168    
    144500   0.25940336     1.3564471      0              1.7453622      55.001473    
    144750   0.251915       1.344761       0              1.7224489      54.763699    
    145000   0.25074778     1.3233751      0              1.6993131      54.537366    
    145250   0.23730908     1.3215065      0              1.6772963      54.466314    
    145500   0.23241671     1.3057437      0              1.6541985      54.315565    
    145750   0.22466092     1.2948238      0              1.6316506      54.196706    
    146000   0.22424649     1.2726756      0              1.6088811      53.946616    
    146250   0.21461826     1.2644072      0              1.5861774      53.830851    
    146500   0.20641937     1.2540799      0              1.5635578      53.708711    
    146750   0.1974525      1.2450119      0              1.5410461      53.606221    
    147000   0.18981106     1.2338993      0              1.5184768      53.463207    
    147250   0.1793163      1.2273298      0              1.4961729      53.37887     
    147500   0.17466484     1.2119907      0              1.47386        53.236957    
    147750   0.16934226     1.1973427      0              1.4512321      53.083466    
    148000   0.16004374     1.1888305      0              1.4287789      52.962561    
    148250   0.15658046     1.1715622      0              1.4063182      52.789929    
    148500   0.14580301     1.1656543      0              1.384252       52.724385    
    148750   0.1386561      1.1540496      0              1.3619322      52.611581    
    149000   0.13326032     1.1397956      0              1.3395885      52.461251    
    149250   0.12171359     1.1350198      0              1.317501       52.406765    
    149500   0.11813838     1.1180641      0              1.2951852      52.23589     
    149750   0.10611446     1.1141971      0              1.2732911      52.202919    
    150000   0.10264772     1.0972224      0              1.2511188      52.049583    
Loop time of 12.2116 on 4 procs for 100000 steps with 2048 atoms

Performance: 3537633.595 tau/day, 8188.967 timesteps/s, 16.771 Matom-step/s
97.8% CPU use with 4 MPI tasks x 1 OpenMP threads

MPI task timing breakdown:
Section |  min time  |  avg time  |  max time  |%varavg| %total
---------------------------------------------------------------
Pair    | 3.8812     | 4.0038     | 4.2999     |   8.6 | 32.79
Neigh   | 1.8611     | 2.0857     | 2.2687     |  10.2 | 17.08
Comm    | 3.8832     | 4.3701     | 4.7056     |  14.4 | 35.79
Output  | 0.20592    | 0.20702    | 0.20985    |   0.4 |  1.70
Modify  | 1.0255     | 1.0733     | 1.0987     |   2.8 |  8.79
Other   |            | 0.4717     |            |       |  3.86

Nlocal:            512 ave         517 max         508 min
Histogram: 1 1 0 0 0 0 1 0 0 1
Nghost:            637 ave         641 max         632 min
Histogram: 1 0 0 1 0 0 0 0 1 1
Neighs:        3072.25 ave        3133 max        3017 min
Histogram: 1 1 0 0 0 0 0 0 1 1

Total # of neighbors = 12289
Ave neighs/atom = 6.0004883
Neighbor list builds = 11349
Dangerous builds = 0
Total wall time: 0:00:20
